/*--------------------------------*- C++ -*----------------------------------*\
  =========                 |
  \\      /  F ield         | OpenFOAM: The Open Source CFD Toolbox
   \\    /   O peration     | Website:  https://openfoam.org
    \\  /    A nd           | Version:  dev
     \\/     M anipulation  |
\*---------------------------------------------------------------------------*/
FoamFile
{
    format      ascii;
    class       volScalarField;
    location    "1400";
    object      yPlus;
}
// * * * * * * * * * * * * * * * * * * * * * * * * * * * * * * * * * * * * * //

dimensions      [0 0 0 0 0 0 0];

internalField   uniform 0;

boundaryField
{
    inlet
    {
        type            calculated;
        value           uniform 0;
    }
    outlet
    {
        type            calculated;
        value           uniform 0;
    }
    ground
    {
        type            calculated;
        value           nonuniform List<scalar> 
5358
(
44566.7
44567.8
44567.9
44568
44568
44568.2
44568.3
44568.5
44568.8
44568.8
44568.8
44568.5
44568.3
44567.9
44567.7
44567.5
44567.4
44567.3
44567
44567.1
44567.4
44567.5
44567.5
44567.6
44567.6
44567.7
44566.4
44566.6
44566.7
44566.6
44566.5
44566.4
44566.4
44565.3
48110.8
48109.4
48109.3
48109.2
48109.1
48108.9
48108.3
48108.9
48108.5
48108.1
48107.8
48107.3
48106.5
48106
48106
48105.7
48105.1
48105
48105.6
48105.7
48105.6
48106
48106.6
48106.2
48106.9
48107.4
48106.7
48107.6
48107.5
48107.7
48107.9
48108
48108.1
48109.3
50579.1
50577.5
50577.5
50577.4
50577.4
50577
50577.3
50578.1
50577.9
50577.8
50578
50578.2
50578.4
50578.7
50578.6
50578.5
50578.6
50578.5
50578.2
50577.8
50577.6
50577.5
50577.5
50576.6
50576.9
50577.8
50576.2
50576.5
50576.1
50576.4
50576.5
50576.7
50576.6
50578.4
51870.3
51867.6
51867.1
51867.4
51867.5
51867.1
51867.9
51867.8
51867.7
51867.8
51867.7
51868.2
51868.3
51867.9
51867.8
51867.3
51866.8
51866.8
51867.1
51866.6
51866.8
51867.6
51867.8
51867.7
51867.6
51868
51867.1
51867.5
51866
51867.1
51866.6
51866.7
51867.1
51869.8
52383.7
52380.1
52377.9
52377.5
52377.3
52376.1
52376
52374.1
52373.3
52371.3
52369
52365.1
52362.4
52360.2
52358.6
52357.1
52355.4
52355.7
52357.4
52361.1
52363.4
52364.8
52366.6
52368.8
52371.2
52372.7
52373.5
52375.5
52375.9
52377.6
52376.7
52377.4
52379.3
52382.7
52437.1
52433.2
52428.4
52426.5
52426.1
52422.6
52418.9
52413.7
52408.3
52400.7
52393.3
52384.8
52374.7
52364.4
52358.9
52353.8
52351
52353.4
52359.1
52365.7
52373.7
52382.4
52389.9
52397.2
52403.4
52409.1
52413.4
52417.8
52421.5
52424.6
52425.3
52426.5
52431.2
52435
52230.5
52225.4
52218.9
52214
52211.1
52204.2
52195.8
52185.2
52173
52158.4
52139.5
52115.3
52092.3
52068.6
52050.2
52039.2
52035.3
52042
52055.6
52075.8
52095.1
52111.5
52128.5
52144.2
52159.8
52172.8
52183.2
52193.2
52201.6
52207.5
52211.4
52214.8
52222
52225.6
51885.1
51880.2
51870.7
51861.7
51854.4
51843.6
51828.5
51809.3
51785
51754.6
51719.9
51680
51627.6
51573.1
51533.3
51511.5
51508.3
51523.5
51550.8
51587.2
51627.3
51665.5
51700.2
51731.4
51759.7
51784.5
51805.8
51823.1
51838.1
51848.6
51855.2
51862.7
51872.6
51877.5
51474.7
51468.9
51455.9
51443
51429.7
51413.2
51390
51358.9
51322.2
51275.7
51211.5
51129
51051.7
50981.5
50925.4
50894
50890.1
50910.6
50948.2
50996
51047
51103
51162.8
51219.4
51269.1
51312.7
51348.1
51377.5
51402
51419.4
51430.6
51443.5
51456
51462.5
51042.6
51034.9
51020.3
51001.8
50981.7
50955.8
50924.2
50879.2
50820.1
50746.6
50668
50571.7
50460.9
50350.2
50256.9
50205.2
50197.9
50226
50286.4
50360.3
50438
50516
50591
50659
50725.4
50794.8
50857.8
50903.9
50938.1
50963.6
50981.5
51000.4
51016.3
51024.3
50613.8
50604.6
50588.3
50565.1
50537.5
50501.5
50454.4
50396.8
50329.2
50258.2
50169.6
50049.7
49896.4
49734.5
49588.4
49487.9
49443.4
49463.4
49555.4
49667.3
49788.1
49902.9
50009.3
50104.7
50189.2
50267.8
50346.1
50418.6
50470
50505.8
50534.5
50559.4
50579
50588.6
50203.2
50193
50174.6
50148.3
50113.6
50068.2
50009.5
49954.6
49892.3
49827
49768
49801.1
23294.5
22958.3
22474.2
22126.4
22162.3
22505.5
22743.8
22921.9
23091.6
23259.5
23409.5
23536.8
23640.5
23724.5
49897.8
49954.9
50014.8
50065.7
50104.8
50135.7
50159.2
50170.5
49818.5
49808.1
49788.3
49759.4
49719.6
49668
49617.4
49566.3
49514.9
49488.6
49581.3
50216.8
22463.2
23845.5
10203.9
9701.91
7450.87
11233.6
21104.4
21133
21396.6
21705.5
21953.1
22160
22320.4
22442
49529.7
49543
49600
49654
49702.1
49739
49765.8
49778.8
49463.8
49453.3
49432.7
49402.8
49360.1
49314.9
49270.6
49223.2
49186.7
49215.8
49520.4
50934.1
24440.3
32386.9
9531.17
7118.18
9534.17
25289.5
21812.5
21106.2
21556.8
21851.6
22047
22185.9
49233.6
49182.5
49235
49286.6
49333.9
49374.6
49403.5
49417.9
49140.2
49128.9
49109.2
49079
49039.1
49000.7
48958.1
48910.8
48881.2
48934.2
49363
51273.4
25302.1
13553.8
22161
12214.4
12574.6
3403.25
12991.5
13838.6
36721.5
23567.7
21864.7
22035.6
22202.7
48982.6
48872.3
48915.2
48965.8
49008.4
49045.4
49074.2
49089.6
48845.7
48834.6
48816.2
48787
48752.9
48717
48671.3
48618.6
48578.9
48609.7
49072.2
51378
26101.7
8288.5
2319.19
3502.31
5255.85
3783.05
2549.53
4979.66
3967.98
33534.6
25965
22574.1
22111.1
22250.8
48745.9
48605.4
48637.5
48684.4
48723.5
48754.3
48778.6
48793.9
48577.9
48567.9
48551.2
48524
48494.1
48457.2
48406.6
48344.7
48280.9
48267.5
48798.2
51685.9
27181.8
8093.89
27345.7
27845.4
22305.3
42249.1
31109.5
22820.2
22395.3
22306.2
48495.3
48365.9
48392.1
48434.7
48471.9
48496.9
48515.8
48528.4
48334.1
48324.9
48310.2
48285.8
48257.7
48218.6
48163.1
48090.1
47996.7
47952.1
48636.1
52111.8
28075
15764.1
13338.5
17317.7
9199.86
35378.6
29565
22857.9
22387.3
22376.3
48227.5
48136.4
48167.9
48208.6
48243.9
48266.4
48280.5
48290.1
48110.6
48101.7
48089.3
48066.8
48038.1
47996.4
47936.3
47851.7
47725.6
47648.3
48411.4
51950
27910.3
27064.5
1431.29
2167.55
19724.8
31477.7
17813.9
29305.8
27058.4
21892.4
22213.4
22442.9
47950.1
47906.1
47953.5
47998.2
48033.3
48053.5
48064.8
48073.5
47902
47894.7
47883.7
47860.6
47830.4
47785.7
47719.5
47620.6
47453.9
47317.8
48039.1
51270.4
27268.9
25168.3
6223.13
2225.26
1327.11
2306.93
2505.44
27597
27497.1
21913.1
22490
22480
47663.1
47673.8
47743.8
47794.9
47832.4
47852.6
47865.3
47873.3
47706
47698.6
47686.9
47663.6
47629.4
47579.9
47504.6
47388
47172.4
46947.5
47528.2
50276.2
26323.9
24162.4
16778.7
2220.15
1883.77
7211.67
19564.7
24143.4
34144.8
29202.9
22523.8
23656.6
22487
47368.4
47440.4
47536.7
47595.2
47637
47662
47675.8
47685
47519
47511
47498.8
47475
47434.9
47376.8
47290.7
47153.2
46884.4
46545.8
46919.9
49158.2
25287.8
23501.8
17101.4
12596.6
14061
13667
17428.3
16495.7
26406.8
35538.1
29827.5
23403.6
25330.2
22441.3
47074.3
47210.8
47332.5
47400.7
47449
47478.8
47494.3
47504.4
47337.9
47329.7
47316.3
47291.5
47247.1
47178
47076.7
46917.2
46598.3
46138.2
46272.5
48044.7
53378.6
51054.9
49779.7
43936.7
40730.6
36909.6
32090.8
49183
66708.1
76417.9
64823.1
60489.8
55425.6
47201.9
46808.2
46995.9
47140.3
47215.1
47268.1
47299.9
47317.4
47328.1
47161.4
47152.7
47138.2
47111.6
47063.7
46985.5
46868.4
46679.4
46313.1
45743
45655.9
46897.9
52100
51814.1
53419.7
52108.9
47521.1
42370.4
40358.8
51611.1
64022.9
71123.5
62195.1
59081.7
54306.8
46860.3
46575.2
46801.4
46955.1
47034.5
47090.5
47124.7
47143.9
47154.7
46988.3
46979
46964.1
46936.7
46885
46801
46669.7
46452.2
46039.2
45371.5
45079
45768.1
50692.6
52212.4
55648
56238.8
52017.3
45478.5
44170.4
53751.9
62809.7
67510.7
61502.3
58968.9
53407.6
46610.2
46357.1
46613.5
46771.8
46856.9
46915.2
46951.3
46970.9
46982.8
46817.3
46808
46791.9
46762.9
46708.1
46617.9
46474.7
46234
45777.7
45026.2
44550.3
44722.4
49300.2
51751.4
56335.8
58545.4
54531.8
47084.5
45375.2
54996.8
62218.7
65051.6
61371.2
58691.5
52638.8
46413.5
46153
46429.9
46590.6
46680.1
46741.5
46779.3
46799.3
46811.8
46650.1
46639.9
46622.8
46591.7
46532.7
46437.1
46285.1
46024.2
45532.4
44712.6
44076.1
43789.2
47989.3
50524.7
56047.3
59947.6
56447.2
48386.1
45278.9
55664.2
61886.7
63351.2
61135.7
58141
51971.9
46249.4
45964.8
46251.4
46412.9
46505.2
46569.1
46608.5
46629.8
46643
46485.1
46474.8
46456.2
46422.6
46361
46260.7
46101.8
45825.3
45307.3
44434.9
43662.3
42981.2
46794.3
48876.6
55447.4
60699.3
57543.1
49015.7
45376.6
56046.4
61638.3
62145.2
60661.2
57441
51388.9
46107
45792.3
46079.7
46238.8
46333.2
46399.4
46440.2
46462.9
46476.2
46325.5
46314.7
46294.8
46259
46195.3
46092
45928.6
45641.4
45104.2
44195.1
43309.4
42296.7
45717.1
47204
54942.1
61081.4
57985.3
49287.5
45404.7
56158
61369.9
61218.3
60007.5
56685.3
50872.3
45979.8
45635.9
45918.5
46073.2
46168.2
46234.4
46276.7
46301.2
46314.5
46167.9
46156.9
46135.8
46098.4
46033.6
45928.9
45762.4
45470.9
44923.2
43991
43014.8
41731.9
44781.1
45758.9
54834.7
61444.9
58322.2
49554.3
45555.8
56187.2
61144.5
60495.9
59295
55948
50413.6
45865.7
45495.9
45766.6
45913.5
46007.9
46073.6
46116
46140.9
46154.6
46023.2
46012
45990.2
45951.9
45886.8
45782.4
45615.2
45322.1
44770.1
43823.3
42775.7
41271
43955.8
44573
54691.7
61376.8
58190.7
49478.9
45396.8
55873.3
60699.3
59741.7
58466.1
55187.2
49986.2
45765.3
45376.9
45633.5
45771.3
45863.8
45927.2
45969.7
45994.9
46008.2
45873.7
45862.7
45840.9
45802.5
45738.1
45635.6
45470.4
45180.7
44633
43685
42585
40927.5
43283.6
44042.3
55398.5
62067.2
58967.2
49982.3
45934.4
56104.3
60589.6
59254.4
57822.3
54549.5
49609.1
45671.3
45268.5
45505.8
45630.5
45718.5
45778.6
45819.2
45843.9
45856.5
9798.37
9807.02
6556.5
23204.6
16828.4
11153
23454.5
9645.09
3673.92
16828.2
1401.77
7836.2
12195.9
1812.89
1121.49
1401.03
2851.83
26172.7
5724.64
898.768
13253.4
1819.41
4113.46
22771.9
14042.1
1834.75
3712.43
4765.57
9547.29
3028.65
26804.9
4194.8
9766.66
3359.54
7388.26
19548.3
3084.24
8828.9
20610.2
28577.9
8416.27
3120.13
21971.7
46776.9
18724.5
16111.2
437.804
1086.46
11720.9
693.765
10285.6
10460.8
9572.34
21566.4
12955.6
1795.09
19901.8
426.753
2545.74
3844.4
1687.79
5264.64
15075.8
11994.1
1499
323.212
2196.98
1609.62
219.568
440.976
7052.59
7068.11
8519.06
8066.51
11985.2
28334.1
8383.95
483.139
15683
6125.08
447.677
14100.8
15916.1
3903.05
8646.81
5699.41
12049.1
16391.2
659.721
8119.45
13800.3
18106.8
16125.9
5393.62
4004.37
22052.2
10071.6
21665.2
22289.6
9905.25
11303.1
13159.5
5060.68
21460.4
13966.7
10653.7
21056.9
21153.2
12945.8
20005.7
34959.3
13915.1
718.323
7660.15
4307.14
2884.65
1307.03
5957.54
9403.98
11158.3
9506.92
2389.66
8268.57
1515.82
25302.1
29876.1
24099.3
20928.3
39388.7
29181.4
13160.7
14097.6
25726.7
12133.3
1296.12
4722.55
12238
8396.49
4921.06
1893.93
2977.28
303.847
13316.7
3877.08
13508.3
8007.27
27755.9
26913.2
31605.3
14720.1
16506.6
26593.6
8200.19
12012
3886.35
3734.65
12808.2
58735.3
25500.5
4331.67
16936.1
18426.1
3820.02
5451.72
4467.06
14547.8
40899.1
20017.2
16810.9
16639.9
27742.1
7885.48
2295.76
2424.97
11973.4
11370
28843.8
2768.85
3428.44
10942.2
3486.57
2774.07
7427.79
9187.33
1974.04
22875.4
8616.25
11567.8
4823.55
29239.1
13947.6
9790.74
7947.44
2816.44
2251.47
3648.47
4141.72
8796.41
22725
8788.42
8221.61
4196.79
4404.22
25932
1063.06
20940.3
3297.92
2422.77
23086.5
4253.51
3426.29
38638.8
13303.1
4658.63
7331.02
6143.86
4406.89
5891.52
13253.4
2245.07
1769.87
7941
6574.41
1022.62
3397.73
1792.36
3849.38
3098.59
2667.88
6192.24
15482.8
18254.3
2993.08
6378.72
7830.41
2695.04
10786.5
10327.2
5263.85
12504.3
8933.19
5860.78
10304.2
7050.96
4164.5
1493.17
851.153
22203.7
1246.29
1859.72
7453.07
8888.89
24211.1
7153.77
1552.01
7510.61
23439.2
9758.22
2666.84
623.875
13481.1
2191.42
5743.51
12189.5
1253.64
1164.84
1631.6
2853.27
1587.56
10358.1
105.175
12138.2
1477.29
9088.61
659.726
2595.07
12927.2
1657.53
3514.56
1486.5
6002.39
16245.2
14704.4
6481.58
5350.85
3270.24
4705.32
4493.24
2852.92
3260.03
1930.15
5847.22
4412.32
7547.19
3253.12
13752.7
4179.29
4282.28
7268.58
1095
23947.9
7899.91
4470.75
12962.5
5321.58
4076.41
3785.37
1643.33
7779.2
1847.44
1891.44
1978.11
2998.86
7798.36
1562.51
10966.2
2989.85
2152.93
6039.07
2566.4
21699.5
2237.57
5272.24
3662.02
11805.7
9647.17
11386.8
3326.54
2344.28
29276.8
10585.9
3607.49
9552.23
8644.65
8048.59
7253.99
5502.92
6203.23
6426.28
5448.92
22732.2
22868.7
9079.31
6037.06
5730.41
6359.11
6134.62
5488.03
21827.7
8916.71
9626.18
9934.95
14884.1
4858.56
3202.66
2602.35
4802.16
1340.74
6664.72
8560.87
7617.57
15368.9
13304.5
3641.52
2954.73
9397.39
7255.15
9597.35
22919
5313.61
12210.4
13719
15214.6
2404.98
7899.62
15064.7
8146.46
2262.62
764.678
2347.35
913.822
1148.26
2162.65
607.984
3489.14
12430.8
1284.77
6556.75
4237.02
5749.91
4646.16
475.301
2272.82
485.509
1956
576.999
6156.95
8445.33
6049.45
5736.07
593.375
1002.86
5577.83
6030.33
2523.16
2049.6
2502.56
3112.22
7140.16
7011.63
2691.7
13698.2
8171.59
3884.35
4050.12
1156.32
3770.1
8179.66
7663.72
4412.54
3473.27
4394.44
22296.3
21632.1
21834.5
26178.4
20420.5
29969.2
10308.4
10722.9
13030.8
7081.05
9058.68
7936.71
9094.32
6085.35
5884.49
26678.5
10233
3432.52
12274.8
12438.1
12351.2
11369.3
5443.73
2855.76
14236.6
6114.07
5036.94
5119.39
4307.59
1441.5
666.327
1626.77
1565.84
6807.2
17560
16444.9
6889.01
8000.79
2683.81
5905.84
15578.4
14629.5
3486.19
3105.18
3666.06
2601.75
4402.19
4286.97
17854.3
16071.3
18204.2
1202.38
8441.49
10098.1
3857.18
3641
4106.39
7501.82
6258.23
3098.29
15286.5
12519.3
15677.3
2870.33
2671.53
9608.91
21675.9
24609
3694.87
4819.52
5430.85
1048.79
330.735
1437.19
3475.14
3300.91
1057.98
3210.91
99.0407
1393.14
496.233
482.211
4257.68
9165.27
2535.86
6303.52
6448.39
7636.1
2853.99
1151.74
15831.9
14557.1
17624.3
21885.1
21684.7
17625.1
15912.4
16221.8
9996.61
550.487
387.84
8621.55
10601.1
4566.24
7599.99
5711.26
3130.23
3007.42
442.9
703.884
15402.1
3721.02
20080.3
3103.66
3134.37
4189.03
1259.51
11842
11953.8
12038.8
1707.94
434.996
1562.64
1799.01
696.141
900.379
2649.15
1933
19844
9194.76
27070.2
2020.15
1512.14
1021.26
3533.31
2378.17
2768.51
9681.38
2911.32
4124.94
3549.59
3656.42
2855.1
1283
3615.99
8769.2
1848.93
1482.48
3340.67
3839.86
23185
24310.5
21161.1
3589.6
9410.18
2110.2
4508.83
2496.23
1508.17
1641.64
3685.24
721.923
1588.45
2660.79
3106.86
1731.08
6448.08
4445.36
119.595
9401.23
8433.19
9715.57
5229.04
5558.98
1987.98
21360.8
19282.2
17475.1
751.728
2630.52
236.775
1096.81
1698.38
1356.43
3891.51
4428.88
5689.37
3113.71
2110.73
1837.37
426.614
2535.47
408.213
2172.97
394.151
231.366
438.193
2831.33
3898.22
2323.71
2416.51
547.977
785.296
2527.29
2143.1
475.77
451.143
6235.02
5537.96
6347.23
7642.43
4699.9
5148.15
209.869
513.385
8769.48
8251.55
7754.89
7152.41
7842.5
8679.21
2082.86
2011.3
6432.9
6579.44
6296.1
8194.27
4093.8
17036.7
7769.33
17295.1
10611.5
8804.04
8773.48
293.987
3077.08
2930.68
9725.6
9565.75
9541.38
9621.68
9653.27
10739.3
5975.08
6513.48
5812.79
18467.9
17090.2
17677.3
1619.42
2105.31
1375.98
1349.15
8296.92
6210.15
5249.78
4189.79
554.174
3811.06
367.886
9905.53
16822.7
10162.8
8868.84
2814.76
4444.06
4742.93
10287.5
4578.24
4707.56
12688.4
20189.6
28251.4
22649.7
20130.3
26672.8
4031.85
12089.8
5633.33
3742.96
7541.82
8927.13
6240.94
12446.9
12494
12309.2
2987.41
2973.13
2957.49
2975.72
8316.27
12396.8
22070.4
8164.79
11198.5
7869.29
5000.44
8011.92
2975.93
181.67
224.821
3539.04
6336.37
14118.6
840.953
863.283
4344.9
752.744
842.725
4830.25
395.836
928.739
3427.01
3498.98
3312.92
3466.43
1642.74
1224.41
1473.34
1621.93
609.919
395.183
137.922
285.65
409.411
21925.9
23820.3
27276.3
6026.19
5724.61
3647.76
2011.38
5590.73
5396.04
3198.05
3265.86
3129.86
3175.85
2924.13
2428.85
3685.35
3579.45
11828.1
4534.18
4699.05
3988.95
4419.32
11612.8
2991.82
11813.7
11757.1
11498.2
11729.7
3065.14
3128.62
11787.3
12006.5
11225.2
11487.4
3012.17
2651.87
3224.61
7738.14
7943.88
3371.51
8817.14
8232.31
8254.12
9756.52
9499.76
18091.2
14279
8975.28
14484.3
15640.7
7293.66
9834.58
8436.77
8542.58
7630.65
7940.32
8989.01
2819.12
2538.74
4629.39
5089.52
2427.39
9480.13
8865.77
3775.82
3518.48
3257.83
4292.39
12385.8
13244.2
11057.1
11683.8
4623.47
1232.25
3052.37
6720.63
6238.46
3239.21
7092.68
2941.75
9168.18
9533.97
11010.3
7531.34
8426.85
8504.75
5825.4
15880.4
15513.5
13174.7
14011.9
5449.22
2604.76
2408.63
4691.46
5078.09
4098.87
6334.27
5749.61
5399.87
1540.9
1676.47
405.506
345.897
1069.64
2865.08
2849.69
3207.3
362.408
163.951
1646.63
350.737
604.901
501.897
498.832
2938.76
961.677
1006.87
875.633
942.115
2823.51
2695.18
985.227
2734.56
2702.78
813.166
589.268
10518.8
4294.32
4868.99
4235.24
4218.75
10337.3
3082.25
4046.22
1407.06
8894.63
7484.7
7704.76
5798.67
6723.16
8460.75
2940.18
3024.36
10171.5
5096.98
4396.7
652.12
3719.96
1738.08
1747.25
1660.82
6217.49
6195.55
5718.16
5967.75
1979
3049.55
3084.46
8003.18
7259.12
7024.25
7679.52
7513.41
8611.49
4090.27
6402.49
3169.22
618.026
5439.2
5417.62
4540.84
4541.15
4587.32
4585.47
4282
8228.07
9515.12
5663.29
6724.99
1428.57
3271.72
2116.05
3481.44
3434.93
2813.55
2748.44
2955.46
2868.58
12056.4
12109.3
12328.2
1692.13
451.482
1576.95
2250.91
1162.82
8860.26
8131.22
8330.13
9459.32
535.747
1001.62
3837.57
2124.75
485.968
4073.48
2091.44
2730.25
4018.1
1918.94
1756.66
840.18
5906.25
89.3572
268.808
3528.51
129.505
783.106
3652.68
606.41
3962
3423.26
1061.11
1215.45
804.771
876.953
2339.2
1187.98
2581.4
938.797
1492.33
1070.39
1658.11
250.946
4916.02
136.221
159.636
4641.87
1608.02
1454.41
8668.23
2685.23
2115.48
4795.09
4602.54
2779.53
4023.66
5219.08
5423.9
3151.73
6123.12
4428.16
2300.23
11304.2
10853.8
3960.92
761.78
4385.43
6282.47
652.447
800.22
791.426
3247.47
2742.71
3125.36
10263.2
2559.43
3736.01
2745.59
7867.41
9446.59
1014.91
1599.43
2718.83
8452.92
7997.99
1812.26
1294.58
4508.7
338.376
4562.79
2993.61
11216.4
1427.18
3522.99
4032.45
4531.07
4963.32
12103.6
11334.9
11712
12069.1
11411.2
4298.5
3920.21
2117.97
10166.6
10986.2
2678.01
2633.13
4165.56
2757.79
7588.7
7608.49
8231.43
3145.64
2937.65
7301.79
2358.66
2501.1
5637.4
366.753
396.277
372.162
366.768
5907.73
424.21
346.484
5222.81
6006.46
401.594
395.008
377.986
400.419
5992.75
6429.96
379.839
375.344
391.703
381.173
6272.2
10293.2
9187.39
9093.3
8774.17
8916.47
10249.1
5147.7
859.059
5297.15
4413.32
1835.27
4864.33
7459.86
7007.89
1963.16
3180.82
621.798
684.078
3028.39
124.127
2675.6
2468.67
2778.92
3844.95
2815.32
1991.01
6035.2
6168.96
596.698
2527.18
628.151
1329.08
1970.36
2910.47
3336.89
1166.8
4140.1
3887.47
2988.35
1801.13
1414.27
3149.69
4949.46
1179.4
2347.17
2169.56
435.939
2477.25
452.676
336.366
342.998
2064.92
2218.32
2156.31
509.618
574.749
2423.54
2418.6
2900.54
2831.68
877.673
2374.38
774.974
851.53
651.361
747.858
2215.74
440.994
394.332
2941.04
982.921
530.137
1011.68
1027.55
3274.51
524.517
499.007
2396.16
2625.11
5955.72
5392.65
7235.43
6590.7
3334.65
3382.61
3281.4
3343.4
336.687
1041.41
4258.3
2083.41
1060.08
1227.59
2308.69
4393.26
3512.32
1275.03
1331.82
1580.7
3709.34
515.67
3209.5
3111.58
2207.84
2024.57
2615.3
2284.08
1851.48
1802.16
1981.47
1878.71
10138.6
14724.7
13519.9
7723.91
3173.94
9341.81
10649.1
10603.8
13070.4
12802.9
12058.8
2884.14
2782.65
3305.64
13881.8
5157.41
12891.3
8088.63
7991
8324.27
2336.62
2200.69
2476.58
2979.83
5240.15
4963.61
2376.66
2695.76
2161.17
4462.74
5687.1
5243.09
7776.12
7668.81
8034.81
21907.1
22678.2
23008.3
37201.9
34646
38009.6
34775.8
32594.7
28097.3
4297.21
11921.5
14936.6
32240
30117.7
32890.6
1390.12
1687.81
1604.16
2577.41
2776.21
2552.76
28080.9
27097.6
26722.2
2969.83
2974.58
2412.7
2111.51
1644.98
1040.28
136.488
332.004
2320.49
2408
2362.96
2781.94
2412.1
722.414
382.484
29182.6
30404.6
25442.1
10146.1
9980.84
9506.6
11361.6
10002.7
9293.1
10584.1
10638.7
9765
3778.74
3215.18
3039.66
1287.03
7185.8
8138.13
8230.74
1748.68
1044.08
990.555
632.611
573.316
995.31
1571.57
366.927
753.961
11582
11684.2
13149.9
1863.34
1520.37
1560.66
1325.55
789.009
1605.62
1656.4
1888.77
4689.77
1194.37
4563.41
4281.53
4245.93
4873.12
9547.93
3327.87
8601.35
4003.4
7745.56
7452
6879.52
2597.94
2425.84
2600.64
19763.4
21584.1
20269.4
506.795
994.64
403.611
869.154
12572.2
13973.8
4695.78
830.333
1365.09
811.459
10492.1
8397.36
8172.22
17990.1
17131.3
22177.8
1981.07
2018.36
1880.14
478.912
340.728
1585.17
1774.77
1851.96
13860.7
14551.1
15936
11764.4
13087.7
12699.2
244.309
2113.57
295.955
662.849
801.173
409.318
503.239
625.621
474.9
7745.27
9494.37
10071.6
501.754
419.706
2657.2
2657.68
2358.58
725.173
8141.37
7936.51
7863.44
17700.6
18331.4
18840.8
17045.6
17847.1
16993.2
4532.99
5164.8
5725.25
4097.38
4216.9
4133.56
14000.9
9410.77
9357.35
11138.7
9706.78
12610.7
9303.41
9349.48
11075.3
932.493
4377.68
4273.46
4144.6
2334.45
2318.58
2875.05
1001.42
8733.03
9509.87
10182.6
8214.15
1898.95
11250.5
10398.6
9589.9
8995.28
2383
2812.7
10005.9
2627.5
9890.1
10539.6
8923.63
2352.13
2207.74
2936.98
2983.03
29717.8
23448
24091.2
12805.1
12589.3
13387.1
12366.2
12778.1
12133.7
1761.89
5451.96
6600.8
5840.99
7464.88
8109.42
8328.7
6536.8
7638.62
5951.38
2501.35
3014.2
2327.23
2271
169.789
208.071
257.67
4080.47
2903.07
2523.9
12870.1
5076.87
13999.8
15417.7
13405
13111.9
14080.9
13749.8
16033.2
601.586
589.35
496.271
479.411
8303.02
7979.24
7924.91
3635.72
4489.04
4636.46
299.378
19363.5
18855.6
14997.4
5039.7
5377.63
4197.43
5401.3
5633.49
1936.37
17869.2
17927.5
19950.7
16908.1
14703.7
14408.7
15168.6
14919.2
16845.5
352.841
397.951
434.202
433.753
7966.52
7547.62
7446.45
2591.24
2383.03
2829.08
4400.31
4169.41
4887.43
4732.18
3245.06
3314.98
4939.95
5084.08
4208.38
4248.35
2641.69
3218.21
2825.23
1201.9
8879.89
9467.5
9041.54
5986.94
6734.91
6219.34
8530.74
8509.05
8733.82
8131.82
8263.68
8310.44
4342.34
5432.1
5574.23
963.392
446.304
408.955
3262.99
3180.35
3240.07
803.222
3157.68
2545.25
5465.56
5643.33
4908.64
6948.55
6767.08
7130.59
6014.2
6391.11
6548.62
2196.15
1037.37
1339.98
1359.26
3355.84
3451.43
1189.68
1605.91
6412.91
6796.3
6686.85
739.736
771.707
670.986
610.741
5513.5
6217.72
6012.47
9616.44
4221.31
8491.78
3938.9
3679.66
3985.99
1611.71
1448.66
1481.96
1771.05
1729.82
2256.99
2456.23
2048.14
6781.67
7155.25
7016.82
984.867
1262.64
1626.76
1932.58
7207.51
5913.64
4345.76
2864.68
2898.47
2950.98
2980.35
9796.32
10722.5
10740.7
1847.76
2224.61
3471
4181.43
3568.97
4343.89
4164.3
1706.69
5622.9
7023
6299.41
526.824
212.428
638.161
612.129
1508.96
1253.59
1479.85
1363.48
1471.23
1304.07
1640.37
2170.55
2046.81
2741.56
1549.74
9555.39
10411.8
11103.5
2911.79
1880.73
2920.28
3225.71
7443.75
6864.96
5639.54
7274.23
7654.88
8657.07
554.911
563.856
1516.22
1127.49
554.368
2698.74
2317.46
2407.39
315.887
252.803
177.464
146.231
12969.7
11481.9
11053.4
1222.87
1295.87
1787
2212.93
1879.92
3023.25
1256.69
941.946
1113.48
2105.56
2206.64
629.96
639.533
1736.51
4097.58
3013.05
1015.46
1528.31
8746.79
10023.7
9361.65
5172.27
4948.37
5305.79
4624.8
4388.15
4717.62
1458.38
4697.13
1931.15
2117.78
1702.49
7764.49
2997.32
7721.76
1717.59
1641.79
1801.26
1393.24
1175.88
2187.44
7365.06
7125.34
7647.47
573.242
456.683
5445.71
2426.58
2956.97
3829.3
3793.41
1611.53
1667.44
2258.71
1398.94
7376.01
7326.12
3098.11
2821.24
2340.84
1780.74
10515.8
9156.48
10574.8
10600.6
9786.73
8885.52
10869.5
10485.9
11155
3668.32
4617.62
4345.87
3733.02
3860.49
2766.9
906.281
556.199
11474.1
10926.1
9964.83
12051.8
11536.2
11516.5
563.935
575.209
1505.45
1146.63
6521.4
7971.71
9552.52
5058.25
619.304
4118.33
9687.56
10673.5
10318.7
6878.52
4419.21
545.72
8449.83
7280.4
8751.34
4894.6
2096.77
4305.62
4835.08
5262.54
2625.83
8018.97
7206.65
7803.65
6376.36
7177.8
611.176
670.971
2570.75
2633.59
7092.62
6933.16
8070.59
2064.01
2613.9
2838.63
567.612
830.322
436.868
477.115
1219.57
1160.45
1020.84
658.182
1424.78
1053.25
1102.47
1052.02
6162.56
5780.26
5935.22
5378.09
5301.07
5650.22
4528.92
4946.51
5008.47
444.707
2315.94
485.359
938.947
891.654
555.682
587.976
961.509
965.513
1335.84
1304.06
976.609
653.789
699.037
2187.45
2149.39
3469.44
3505.85
7972.03
7960.36
8133.62
465.666
464.789
325.217
463.728
1395.79
1382.56
1197.13
8105.66
7949.66
8058.58
7458.86
7750.69
7928.5
4656.98
4834.8
4310.71
3070.13
4275.19
4353.32
4501.57
17523.4
15969.6
19144.5
3563.3
7269.56
1505.83
2433.7
5551.65
2296.3
10424.6
11176
10050.4
5398.68
6694.92
2745.82
4107.58
2025.74
2145.08
1836.27
1927.97
2986.32
2588.5
2467.45
6749.73
6594.29
6522.26
5233.06
6166.13
6558.58
1742.42
1691.27
1604.09
1033.81
1200.12
967.831
1616.09
1808.42
1836.13
1789.36
1800.82
1600.45
2479.61
3213.37
3339.43
3382.2
3262.26
3718.47
2518.33
1672.38
1410.53
2449.64
1091.38
4284.71
3757.24
4166.31
2983.85
3770.11
1517.55
2422.25
1937.67
3851.57
2642.08
2692.01
2488.96
2568.05
3761.69
469.608
2168.29
2045.03
2914.29
3048.17
3179.16
2805.04
1852.21
1890.63
1775.71
1814.19
2739.35
497.045
459.439
54.7051
1169.52
1113.88
1128.98
3202.36
247.814
958.965
403.106
1636.73
1515.69
1201.53
492.467
487.848
409.491
2585.37
3000.59
693.083
722.318
428.258
405.086
4929.32
3379.6
10031
2425.36
2668.42
863.146
4775.76
4930.01
5127.28
3108.71
2398.93
2401.16
2386.98
2394.51
3061.47
631.73
661.868
5789.04
6015.58
4305.24
3118.07
2398.38
2390.57
2402.74
2402.19
3130.29
3498.85
3346.27
3989.03
2311.89
2300.53
2215.86
2319.57
1228.4
1095.77
1096.67
1725.41
405.702
432.483
356.893
375.437
609.513
383.485
349.403
828.735
455.422
1575.18
1133.15
806.942
1506.78
204.136
547.128
460.657
170.586
404.251
298.071
915.112
664.134
758.242
1436.6
1479.01
1901.46
2011.56
1705.07
1680.2
1488.44
1623.95
1698.25
1195.65
1422.84
1376.74
2725.71
3506.34
3151.17
3485.92
3546.1
2799.32
1551.11
1558.6
1368.46
1446.43
2391.11
1796.45
1161.78
1202.19
1226.61
1117.53
1429.41
2158.67
2600.77
2443.94
1918.46
946.865
3506.57
2420.4
2234.45
2684.06
2581.41
3727.52
4348.75
4901.3
3475.42
2955.38
2602.58
3957.76
2945.77
1215.15
2095.53
2139.84
427.382
1493.2
1296.46
2505.45
1971.92
1365.92
2636.23
2402.67
3255.48
709.133
640.483
553.876
1347.73
2744.33
1696.05
1790.85
2030.15
1850.56
2951.32
2512.58
2221.27
1184.05
64.3266
78.2108
1965.25
2151.6
2018.63
556.295
496.103
672.842
326.715
380.638
168.236
1620.91
1678.42
780.635
1261.14
889.117
759.746
1528.14
1644.72
1472.81
2919.45
3352.04
3025.36
2512.57
2943.94
2043.12
1442.89
1477.28
1319.11
1395.89
1959.61
503.156
2434.65
333.7
419.652
746.625
748.464
573.842
701.729
370.799
692.649
937.371
103.88
510.355
885.299
927.74
1035.53
851.614
647.139
468.434
460.296
330.998
448.435
419.046
495.702
1784.06
3750.81
1124.41
9557.7
9136.46
7965.45
532.553
3035.92
2004.26
2041.13
1928.48
1967.2
2987.27
1713.59
7536.48
3109.49
2796.49
2546.3
3021.78
2864.19
1751.38
516.429
498.747
590.076
453.506
1880.71
1144.52
605.19
980.897
433.98
448.965
1163.63
4011.4
4261.11
4356.48
2526.26
2295.67
2305.23
2489.46
931.678
1160.85
1831.45
1331.54
3286.49
2801.21
3424.18
544.246
3537.87
4441.7
2505.61
2818.4
9314.78
8955.65
7421.22
10587.3
10071
10258.6
551.035
3064.95
3051.59
510.956
10253.8
1763.53
6233.61
1729.19
1568.06
3492.37
2762.33
2441.27
4049.61
3603.59
4089.61
3113.2
2945.9
4712.14
4368.8
4403.83
4609.33
4213.8
4157.6
4366.08
4288.89
4665.09
3062.13
3091.61
4494.12
3001.37
12283.5
4857.3
2998.7
8636.82
7514.4
6324.02
2989.14
1047.29
1058.46
1018.61
1034.63
2986.77
2953.47
1088.64
1111.74
1067.51
1076.69
2965.75
9924.67
10095.9
8265.92
7080.72
8626.02
9359.75
4218.81
2397.63
2384.28
3016.48
1851.93
1810.69
1769.85
1820.97
181.145
429.299
4698.92
4850.16
4261.53
6177.04
5788.9
6089.6
583.144
669.555
515.123
3605.68
3288.56
4160.2
1101.99
721.481
887.624
1026.81
2426.09
2894.5
1488.5
3446.49
831.708
922.842
575.585
548.793
3464.9
3028.95
2965.87
3146.07
3067.5
3458.75
3394.26
2816.3
2694.89
2956.5
2827.56
3381.74
529.259
522.924
1280.94
1247.51
1365.32
1482.62
1611.83
1162.03
1160.29
1233.68
1496.98
2096.95
2236.63
1870
1964.51
1580.52
824.341
1142.18
956.573
325.828
290.817
402.473
415.797
2256.9
2336.89
2155.27
377.104
414.117
3222.3
2728.36
2734.24
2707.31
2715.23
3240.11
3134.63
2739.5
2757.87
2738.16
2741.65
3152.8
397.158
420.359
2747.39
2391.95
3705.59
3657.98
4633.13
5095.93
5018.91
5142.11
5156.01
4700.75
4159.68
4699.6
4558.56
4918.22
4820.39
4296.55
4562.52
4527.32
2917.38
3136.11
4630.95
4590.42
4741.12
4825.01
3218.92
2837.95
4463.92
4626.31
2743.98
2867.85
3582.17
3760.95
3673.97
1509.05
2801.41
2828.72
6796.26
7234.38
7643.03
801.986
846.416
751.846
784.491
820.858
756.328
855.308
857.394
1082.3
1137.22
935.386
904.235
1164.43
1133.53
1321.76
1337.51
3005.81
1497.89
1005.16
2267.59
765.759
4061.52
4067.17
4379.68
3411.38
2357.21
2422.99
2245.78
2300.29
3324.22
5152.59
5206.59
3996.56
4640.1
5012.78
5131.95
776.674
3313.63
3187.92
3169.7
3302.24
3202.43
3068.17
2763.12
3378.06
3347.34
6685.65
6664.98
5973.37
5166.16
5941.38
6139.96
2538.03
1701.17
1738.29
1629.68
1665.22
2472.88
2013.7
398.535
613.937
596.898
639.311
616.276
352.239
1181.9
1285.41
1057.89
3244.27
314.887
236.712
442.383
560.789
499.113
723.543
652.597
539.601
499.956
500.858
980.455
1165.44
1139.03
1203.56
1182.9
996.025
898.957
1064.24
1035.42
1116.39
1089.67
921.464
764.545
319.232
591.88
626.63
816.137
764.21
4437.62
4895.8
4768.35
5297.65
5119.21
4615.19
4181.36
4659.45
4700.31
4686.4
4648.48
4172.67
3234.01
3025.76
2726.16
4332.35
3870.48
3720.4
1192.81
1561.42
2947.24
2409
2387.06
2582.19
2472.26
2971.18
4896.72
5257.2
5316.17
4873.79
5065.63
4632.86
2458.33
1954.27
518.748
2766.19
3782.77
3401.41
2966.05
1693.35
1692.11
2278.95
1976.04
1545.05
2118.53
2579.05
2478.41
3046.37
2370.78
2414.07
2378.86
2364.31
3063.59
3317.99
2542.03
2504.88
2616.13
2903.82
3113.5
1127.7
1215.84
857.795
2871.69
2856.54
4526.35
4072.68
4096.02
4111.91
4075.13
4525.04
4641.57
4242.36
4209.2
4141.47
4198.72
4615.19
2934.38
2904.36
933.321
928.893
2025.29
1726.81
4161.2
3098.18
3367.37
3884.39
4348.86
3897.32
3597.87
1484.42
631.107
551.012
3012.98
2909.56
3068.83
2066.92
2662.5
2832.97
3486.79
3185.96
3164.19
3158.6
3177.61
3458.47
648.121
613.528
2785.17
924.472
941.658
921.475
915.835
2727.07
2929.2
985.733
1002.08
954.035
971.108
2900.1
495.159
487.983
455.88
477.074
1651.53
1031.77
1064.48
874.842
804.735
543.296
484.691
926.082
1574.43
1527.18
1666.15
1008.16
1315.04
2494.8
1842.49
1558.57
1377.92
3768.84
3663.2
3435.28
3654.9
813.325
715.307
582.615
850.367
809.082
968.2
539.318
503.477
457.494
733.4
761.177
215.111
313.181
3970.96
2715.79
2813.46
567.346
2732.87
3680.54
3650.12
2763.14
2476.94
2767.84
2769.3
3937.54
163.331