/*--------------------------------*- C++ -*----------------------------------*\
  =========                 |
  \\      /  F ield         | OpenFOAM: The Open Source CFD Toolbox
   \\    /   O peration     | Website:  https://openfoam.org
    \\  /    A nd           | Version:  dev
     \\/     M anipulation  |
\*---------------------------------------------------------------------------*/
FoamFile
{
    format      ascii;
    class       volScalarField;
    location    "1724";
    object      yPlus;
}
// * * * * * * * * * * * * * * * * * * * * * * * * * * * * * * * * * * * * * //

dimensions      [0 0 0 0 0 0 0];

internalField   uniform 0;

boundaryField
{
    inlet
    {
        type            calculated;
        value           uniform 0;
    }
    outlet
    {
        type            calculated;
        value           uniform 0;
    }
    ground
    {
        type            calculated;
        value           nonuniform List<scalar> 
5358
(
44566.7
44567.8
44567.9
44568
44568
44568.2
44568.3
44568.5
44568.8
44568.8
44568.8
44568.5
44568.3
44567.9
44567.7
44567.5
44567.4
44567.3
44567
44567.1
44567.4
44567.5
44567.5
44567.6
44567.6
44567.7
44566.4
44566.6
44566.7
44566.6
44566.5
44566.4
44566.4
44565.3
48110.8
48109.4
48109.3
48109.2
48109.1
48108.9
48108.3
48108.9
48108.4
48108.1
48107.8
48107.3
48106.5
48106
48106
48105.7
48105.1
48105
48105.6
48105.7
48105.6
48106
48106.6
48106.2
48106.8
48107.4
48106.7
48107.6
48107.5
48107.7
48107.9
48108
48108.1
48109.3
50579.1
50577.5
50577.5
50577.4
50577.3
50577
50577.3
50578.1
50577.8
50577.8
50578
50578.2
50578.4
50578.7
50578.6
50578.5
50578.6
50578.5
50578.2
50577.8
50577.6
50577.5
50577.5
50576.6
50576.8
50577.8
50576.2
50576.5
50576.1
50576.4
50576.5
50576.7
50576.6
50578.4
51870.3
51867.6
51867.1
51867.4
51867.5
51867.1
51867.9
51867.8
51867.7
51867.8
51867.7
51868.2
51868.3
51867.8
51867.8
51867.3
51866.8
51866.8
51867.1
51866.6
51866.8
51867.6
51867.7
51867.7
51867.6
51868
51867.1
51867.5
51866
51867.1
51866.6
51866.7
51867.1
51869.8
52383.7
52380
52377.9
52377.5
52377.3
52376
52376
52374.1
52373.2
52371.3
52369
52365.1
52362.4
52360.1
52358.6
52357
52355.3
52355.7
52357.4
52361.1
52363.4
52364.7
52366.6
52368.8
52371.2
52372.6
52373.5
52375.5
52375.9
52377.6
52376.7
52377.4
52379.3
52382.6
52437
52433.1
52428.4
52426.4
52426.1
52422.5
52418.9
52413.6
52408.2
52400.6
52393.3
52384.7
52374.6
52364.3
52358.9
52353.8
52351
52353.4
52359
52365.6
52373.7
52382.4
52389.9
52397.2
52403.4
52409.1
52413.4
52417.8
52421.4
52424.6
52425.3
52426.4
52431.1
52435
52230.4
52225.3
52218.8
52214
52211
52204.1
52195.7
52185.1
52173
52158.3
52139.4
52115.2
52092.2
52068.5
52050.1
52039.1
52035.3
52042
52055.6
52075.8
52095
52111.4
52128.5
52144.2
52159.8
52172.8
52183.2
52193.1
52201.6
52207.5
52211.4
52214.7
52222
52225.6
51885
51880.1
51870.5
51861.6
51854.3
51843.5
51828.4
51809.2
51784.9
51754.5
51719.8
51679.9
51627.5
51573
51533.2
51511.3
51508.2
51523.4
51550.8
51587.2
51627.3
51665.4
51700.1
51731.4
51759.7
51784.5
51805.8
51823
51838.1
51848.6
51855.2
51862.7
51872.6
51877.5
51474.6
51468.7
51455.7
51442.9
51429.5
51413
51389.8
51358.7
51322
51275.5
51211.4
51128.8
51051.6
50981.3
50925.3
50893.9
50890.1
50910.5
50948.2
50996
51047
51103
51162.8
51219.4
51269.1
51312.7
51348.1
51377.5
51402
51419.4
51430.6
51443.5
51456
51462.5
51042.4
51034.7
51020.1
51001.5
50981.5
50955.6
50924
50878.9
50819.8
50746.3
50667.8
50571.5
50460.7
50350.1
50256.8
50205
50197.8
50226
50286.4
50360.3
50438
50516.1
50591
50659.1
50725.4
50794.8
50857.8
50903.9
50938.1
50963.6
50981.5
51000.5
51016.3
51024.4
50613.5
50604.3
50588
50564.8
50537.2
50501.1
50454
50396.5
50328.9
50257.8
50169.2
50049.4
49896.1
49734.2
49588.2
49487.8
49443.3
49463.4
49555.4
49667.3
49788.2
49903
50009.4
50104.8
50189.3
50267.8
50346.1
50418.7
50470
50505.9
50534.6
50559.4
50579
50588.7
50202.9
50192.7
50174.2
50147.9
50113.2
50067.8
50009
49954.1
49891.9
49826.5
49767.5
49800.5
23294.2
22958
22474
22126.3
22162.2
22505.4
22743.7
22921.9
23091.7
23259.6
23409.7
23537
23640.6
23724.6
49897.9
49955
50014.9
50065.8
50104.9
50135.8
50159.3
50170.6
49818.1
49807.7
49787.9
49758.9
49719.1
49667.4
49616.8
49565.8
49514.2
49487.9
49580.4
50215.5
22462.6
23844.5
10203.6
9701.64
7450.5
11233.5
21104.5
21133.2
21397
21706.1
21953.6
22160.3
22320.6
22442.1
49529.8
49543.2
49600.1
49654.2
49702.3
49739.2
49766
49779
49463.3
49452.8
49432.2
49402.2
49359.5
49314.2
49269.9
49222.5
49185.8
49214.6
49518.7
50931.6
24438.1
32382.2
9531.08
7117.25
9533.13
25291.5
21815.8
21108.8
21557.8
21852
22047.2
22186
49233.8
49182.7
49235.2
49286.9
49334.1
49374.8
49403.8
49418.1
49139.6
49128.3
49108.6
49078.3
49038.4
48999.9
48957.3
48909.8
48879.9
48932.4
49360.4
51270.6
25299.5
13551.2
22183.2
12206.5
12576.3
3400.31
12988.6
13843.6
36759.9
23566
21863.2
22035.3
22202.7
48982.9
48872.7
48915.6
48966.1
49008.7
49045.8
49074.6
49090
48845
48833.9
48815.5
48786.2
48752.2
48716.2
48670.2
48617.4
48577.2
48607.3
49069.3
51378.8
26099.7
8285.97
2299.99
3316.39
5243.66
3794.97
2551.35
4994.01
3940.56
33467
26009.7
22577.5
22109.4
22250.3
48746.4
48605.9
48638
48684.9
48724
48754.8
48779
48794.4
48577.2
48567.2
48550.4
48523.2
48493.3
48456.3
48405.4
48343.2
48278.8
48264.8
48797.4
51701.2
27193.8
8096.15
27287.7
27833.5
22299
42238.7
31173.3
22842.4
22396.5
22305.9
48496.2
48366.7
48392.8
48435.4
48472.6
48497.5
48516.4
48529
48333.4
48324.1
48309.3
48284.9
48256.9
48217.6
48161.8
48088.4
47994.3
47949.6
48640.1
52145.1
28108.2
15745.9
13332.9
17234.6
9202.78
35333.8
29516.4
22879.1
22388.6
22377.2
48228.9
48137.6
48169
48209.5
48244.8
48267.3
48281.3
48290.9
48109.8
48101
48088.5
48065.9
48037.3
47995.4
47935
47849.9
47722.9
47646
48417.9
51982.6
27936.1
27049.7
1434.1
2172.16
19626.5
31334.2
17837.7
29234.8
26878
21856.7
22224.4
22446
47952.2
47907.6
47954.8
47999.3
48034.4
48054.6
48065.8
48074.5
47901.3
47894
47882.9
47859.9
47829.6
47784.7
47718.2
47618.7
47450.8
47314.9
48044
51287.5
27268.7
25141.6
6213.23
2231.58
1336.99
2295.09
2500.33
27092.8
27147.2
21869.3
22510.4
22485.2
47665.7
47675.6
47745.3
47796.3
47833.7
47853.8
47866.4
47874.5
47705.4
47698
47686.1
47662.8
47628.7
47579
47503.4
47386
47168.9
46943.8
47530.4
50277.4
26291.8
24089.3
16677.4
2222.36
1871.78
7171.14
19632.7
24459.1
33781.4
28889.5
22552.1
23709.4
22494.6
47371.4
47442.5
47538.5
47596.8
47638.5
47663.4
47677.2
47686.4
47518.5
47510.4
47498.2
47474.3
47434.1
47376
47289.6
47151.2
46880.4
46541.3
46919.5
49143.2
25233
23387.6
17069.5
12537
13958.9
13460.5
17002.1
16767.4
26527.7
35401
29644.9
23539.7
25403.9
22450.2
47077.7
47213.1
47334.7
47402.6
47450.6
47480.4
47495.8
47505.9
47337.4
47329.2
47315.7
47290.8
47246.3
47177.1
47075.6
46915.3
46594.2
46132.6
46269.1
48015.8
53105.5
50693.3
49731.1
43968.9
40668.8
36946.5
32130.5
49513.9
66784.9
76376.8
65031.9
61001.8
55555.5
47220.4
46812.9
46999
47142.9
47217.2
47270
47301.7
47319.1
47329.8
47161
47152.3
47137.7
47111.1
47062.9
46984.5
46867.2
46677.6
46308.8
45736.7
45650.3
46855.4
51803
51511.6
53412.1
52138.2
47481.8
42259
40504.6
51768.5
64153.6
71289.8
62556.1
59410.7
54422.8
46878.3
46581.1
46805
46957.9
47037
47092.7
47126.6
47145.7
47156.5
46988
46978.6
46963.7
46936.2
46884.3
46800
46668.4
46450.1
46034.6
45364.6
45072
45716.5
50387.8
51924.1
55643.2
56279.7
51922.3
45350
44366.1
53891.9
63044.4
67843.2
61915.4
59194.1
53505.7
46627.9
46363.7
46617.5
46774.8
46859.7
46917.5
46953.3
46972.8
46984.6
46817.1
46807.7
46791.6
46762.5
46707.4
46617
46473.4
46231.8
45772.9
45019.1
44542.5
44665.8
49002.8
51458.5
56327.2
58602
54422.7
46853.4
45768.1
55243.6
62542.4
65470.1
61738.3
58844.6
52721
46431.4
46160.2
46434.2
46593.9
46682.9
46743.9
46781.4
46801.4
46813.8
46649.8
46639.7
46622.5
46591.3
46532.1
46436.1
46283.7
46021.9
45527.6
44705.3
44068
43731
47711.6
50223.9
56052.7
60034.8
56342.2
48124.3
45610.2
56061.6
62250.4
63774.5
61414.9
58245.6
52040.4
46267.3
45972.3
46256
46416.5
46508.2
46571.6
46610.7
46631.9
46645
46484.9
46474.6
46455.9
46422.2
46360.4
46259.7
46100.4
45822.8
45302.3
44427.4
43654.1
42923.6
46544
48582
55480.1
60803.7
57462.1
48732
45586
56498.7
61998
62530.2
60857.3
57514.2
51446.3
46124.8
45800.1
46084.6
46242.6
46336.2
46402.1
46442.5
46465
46478.3
46325.3
46314.4
46294.4
46258.5
46194.5
46091
45927
45638.8
45099
44187.5
43301.3
42241.4
45497.9
46942.7
55006.9
61184.6
57909.9
48994.8
45520
56627.6
61703.5
61547.6
60139.9
56737.9
50920.2
45997.1
45644
45923.7
46077.2
46171.3
46237.1
46279.1
46303.4
46316.6
46167.6
46156.5
46135.4
46097.8
46032.8
45927.7
45760.7
45468.1
44917.8
43983.3
43006.9
41680.4
44597
45535.2
54933
61536.8
58239.7
49260.5
45657.3
56660.9
61442.1
60767.8
59384.9
55986.2
50453.5
45882.5
45504.3
45772
45917.7
46011.1
46076.4
46118.4
46143.2
46156.7
46022.8
46011.6
45989.7
45951.2
45885.9
45781.1
45613.4
45319.2
44764.5
43815.8
42768.2
41224.3
43806.4
44392.1
54808.1
61452.6
58096.2
49203.4
45558.9
56303
60962
59961.9
58526.4
55215.2
50019.2
45781.5
45385.5
45639.2
45775.6
45867.2
45930
45972.2
45997.1
46010.4
45873.2
45862.2
45840.2
45801.7
45737
45634.1
45468.4
45177.5
44627.1
43677.4
42577.9
40886.7
43166.7
43915.2
55530.3
62133.8
58876
49734.1
46133
56555.6
60823.2
59433.7
57862.3
54570.4
49636.7
45686.7
45277.3
45511.7
45635
45721.9
45781.4
45821.7
45846.2
45858.8
9798.13
9806.8
6556.06
23207.3
16850.2
11154.9
23452.9
9643.98
3671.74
16862.4
1396.65
7834.19
12199.1
1770.24
1073.92
1355.47
2922.77
26165.7
5730.86
873.599
13257
1837.68
4106.44
22792.9
14101.8
1853.74
3543.53
4728.55
9494.73
3093.26
26727.6
4209.5
9762.96
3364.42
7384.32
19496.2
3061.04
8801.95
20528
28609.9
8402.62
3121.06
21964.1
46774.4
18720.4
16091.3
442.224
1089.12
11723.3
696.922
10059.1
10469
9548.52
21571.5
12858
1802.23
19934.7
431.361
2603.62
3836.15
1695.35
5251.29
15121.9
11987.2
1493.44
321.717
2196.49
1602.92
234.858
438.74
7062.75
7067.3
8573.93
8060.85
12008.9
28629.8
8510.41
480.448
15631.6
6101.74
438.56
13928.2
15811.5
3892.9
8514.18
5562.4
12050.6
16384.9
656.597
8122.14
13835.6
18094.8
16168.5
5387.39
3994.64
22052.1
10071.5
21664.8
22289.5
9905.23
11303
13159.3
5060.29
21460.6
13965.3
10653
21057.1
21153.9
12944.7
20004.1
34959.4
13912.8
719.445
7658.72
4307.52
2884.34
1307.68
5956.81
9397.77
11159.9
9505.69
2389.19
8267.87
1515.66
25302.9
29882.1
24093.5
20931.5
39426.5
29192.9
13158.5
14086.1
25724.7
12128.1
1245.7
4695.12
12226.2
8389.34
4993.67
1855.71
2983.85
307.529
13315.6
3875.01
13518.1
8012.26
27765.9
26932.2
31669.1
14721.2
16532
26597.2
8197.82
11950.4
3841.7
3581.34
12706.6
58514.7
25351.9
4267.75
16740.9
18144.8
3778.47
5898.17
4669.06
14476.7
40834.2
20009.7
16839.8
16659
27766.4
7884.51
2283.54
2418.78
11929.2
11351.5
28838.1
2771.47
3424.34
10932.3
3482.88
2780.2
7425.8
9165.94
1975.26
22848.4
8593.83
11563.7
4821.18
29222.5
13957.5
9835.99
7957.81
2847.49
2247.77
3645.87
4121.02
8817.54
22766.4
8792.12
8246.41
4193.71
4395.94
25918
1065.76
20808.4
3319.33
2470.49
22647.8
4216.69
3443.15
38621.5
13287
4611.98
7367.6
6147.24
4432.12
5869.14
13130.9
2231.79
1764.91
7926.55
6579.2
1015.9
3376.02
1790.46
3849.33
3102.15
2660.03
6172.86
15387.1
18317.3
2999.41
6395.55
7777.99
2666.52
10786
10327
5263.8
12503.8
8933.85
5861.03
10304.2
7051.22
4164.84
1494.14
851.99
22212.9
1245.29
1859.22
7451.55
8889.55
24214.2
7151.97
1551.8
7508.27
23436.2
9756.99
2666
624.15
13498.4
2189.08
5723.15
12179.2
1243.54
1043.38
1603.41
2866.27
1554.89
10353.9
105.708
12120.4
1473.86
9084.68
636.252
2477.83
12927
1649.98
3512.26
1477.49
5959.16
16282.8
14761.2
6486.76
5284.4
3206.97
4591.47
4483.29
2800.82
3220.16
1918.36
5672.59
4419.93
7386.23
3460.51
13646.9
4166.76
4265.17
7182.01
1122.52
23781.8
7837.35
4466.94
12921.4
5646.31
4069.62
3784.52
1777.02
7734.23
1698.78
1997.8
1978.42
3008.06
7796.07
1552.52
10960.1
2991.12
2146.75
6043.36
2559.22
21681.8
2228.11
5276.15
3656.71
11756.3
9602.34
11344.9
3324.97
2344.06
29304.9
10559
3603.2
9544.49
8626.36
8030.01
7265.92
5526.04
6182.76
6408.23
5463.37
22724.3
22854.2
9075.35
6033.34
5729.52
6343.69
6129.07
5487.05
21844.8
8921.53
9667.15
9986.61
14902.6
4873.53
3212.16
2603.6
4815.94
1263.16
6637.57
8522.57
7643.94
15402.5
13308.3
3635.91
3003.97
9371.17
7246.15
9606.72
22891
5307.11
12122.5
13721.2
15165
2409.1
7918.28
15100.5
8165.24
2266.31
771.1
2410.32
919.674
1150.41
2222.86
614.59
3490.02
12457.4
1289.44
6554.93
4222.75
5742.76
4620.48
474.158
2258.51
484.722
1954.58
582.406
6205.55
8418.55
6168.82
5848.74
601.642
997.026
5574.33
6015.14
2517.29
2045.85
2497.47
3120.9
7127.45
7017.73
2691.15
13696.8
8171.35
3620.66
3766.57
1024.38
3556.2
8219.13
7708.25
4411.97
3457.35
4392.22
22296.1
21631.8
21834.3
26177.1
20419
29966
10308.1
10722.9
13030.5
7080.84
9058.74
7935.75
9093.92
6084.64
5870.83
26692.2
10235.1
3432.03
12264.6
12429
12344.3
11351.6
5435.84
2852.08
14243.1
6117.63
5039.15
5079.73
4259.44
1422.4
637.072
1592.19
1505.21
6821.92
17168.7
16035.8
6489.39
7623.3
2387.26
5835.12
15483.9
14518.8
3478.53
3097.95
3651.81
2600.84
4397.37
4287.01
17768.9
16041.1
18248.2
1199.99
8450.6
10106.2
3859.69
3642.65
4115.81
7437.48
6328.58
3105.22
15310.7
12524.2
15684.3
2880.29
2679.66
9607.61
21569.2
24559.9
3693.18
4776.9
5405.05
1045.64
332.585
1452.41
3482.8
3310.47
1035.09
3195.6
98.3038
1391.52
492.322
477.214
4237.03
9179.51
2538.37
6357.45
6487.08
7627.65
2817.46
1137.98
15825.4
14429.8
17314.9
22044.8
21857.4
17916.6
15911.8
16220.8
9996.36
550.447
387.889
8620.7
10600.6
4566.14
7599.64
5710.91
3130.51
3007.63
442.956
703.931
15400.2
3722.2
20095
3103.88
3134.65
4185.98
1258.01
11839.7
11950.6
12037.5
1668.46
442.788
1511.52
1822.58
683.896
921.308
2590.42
1930.64
19884.4
9210.45
27092.3
2016.79
1463.84
1017.02
3397.14
2367.17
2751.78
9608.03
3262.42
4267.83
3597.57
3658.31
2848.28
1280.03
3607.37
8746.37
1843.89
1475.72
3320.55
3826.79
23114.3
24207.8
21068.5
3590.89
9407.91
2109.3
4512.73
2495.6
1512.2
1642.09
3686.6
715.399
1592.09
2640.67
3084.2
1719.86
6459.59
4417.77
137.76
9432.81
8365.79
9628.22
5255.14
5584.17
1993.23
21401.8
19329.2
17509.7
760.287
2695.67
240.269
1096.8
1744
1364.95
3921.99
4459.46
5675.62
3098.18
2109.97
1834.67
424.912
2516.22
407.523
2170.9
384.446
231.939
441.712
2846.31
3885.85
2352.58
2459.22
559.95
781.909
2500.03
2126.31
470.538
445.23
6239.85
5529.5
6334.65
7648.29
4700.68
5153.33
211.305
515.101
8781.26
8248.26
7773.81
7137.05
7840.22
8681.92
2071.83
2001.52
6359.73
6561.27
6382.26
8155.57
4019.11
17036.3
7768.49
17294.5
10771
8417.61
8729.96
267.85
3086.42
2940.92
9725.42
9565.67
9541.32
9621.61
9653.2
10739.3
5974.83
6513.34
5812.5
18461.9
17085.5
17675.2
1619.95
2105.47
1377.2
1349.66
8294.5
6209
5250.26
4190.19
554.729
3811.38
368.057
9903.81
16814.9
10160
8856.89
2814.35
4443.49
4742.36
10286.3
4577.74
4707.02
12681
20185
28248.3
22659.3
20143.2
26687.5
4031.72
12092.1
5482.79
3742.18
7537.95
8929.16
6203.32
12435.6
12483.1
12297.1
2986
2971.44
2956.89
2974.53
8325.37
12382.7
22056.9
8177.26
11185.3
7886.64
4993.15
7989.26
2976.99
179.596
219.251
3537.75
6334.57
14116.7
840.463
862.883
4342.89
752.311
843.47
4834.24
396.114
929.544
3431.51
3503.99
3314.96
3469.53
1614.9
1208.91
1476.07
1586.33
586.128
410.801
136.229
300.506
429.772
21603.3
23602.6
27164.9
5942.48
5575.37
3545.79
2294.99
5607.81
5402.71
3193.9
3262.86
3123.97
3171.28
2900.69
2414.38
3676.91
3571.56
11791.4
4526.3
4690.59
3981.33
4411.62
11584
2991.12
11801.7
11751.6
11474.9
11713.8
3063.34
3125.15
11754.4
11974.2
11218.4
11461.5
3008.42
2644.59
3212.43
7727.17
7939.95
3372.76
8809.05
8226.02
8237.31
9747.95
9491.28
18109.8
14325.7
9007.31
14513.8
15676.3
7301.26
9870.66
8462.32
8578.08
7636.06
7954
9011.09
2818.96
2543.82
4621.66
5091.06
2428.68
9497.44
8882.77
3779.19
3519.75
3260.36
4285.88
12387.9
13254.2
11059
11682.4
4616.68
1236.32
3082.65
6884.92
6204.01
3249.62
7234.1
2971.21
9104.57
9416.65
10881.2
7481.98
8339.74
8475.28
5805.35
15853.3
15497.7
13078.3
13938.6
5412.13
2611.98
2412.62
4663.72
5056.93
4108.64
6309.02
5729.07
5375.4
1535.22
1670.9
408.059
347.768
1053.56
2861.87
2804.5
3189.49
356.715
162.646
1651.37
350.956
602.341
499.093
495.263
2936.87
961.838
1009.43
873.354
941.591
2818.86
2712.18
991.631
2705.74
2635.39
813.126
589.224
10518.4
4294.17
4868.86
4235.21
4218.62
10337
3082.31
4046.15
1407.04
8895.19
7485.24
7705.38
5798.75
6723.54
8461.18
2940.36
3024.45
10171.5
5097.06
4396.67
652.155
3720.2
1739.66
1748.65
1671.91
6225.5
6200.96
5728.37
5978.02
1987.39
3049.34
3084.6
8003.07
7259.19
7023.56
7680.13
7513.87
8611.99
4092.57
6417.68
3168.9
618.411
5445.81
5426.68
4540.3
4540.65
4586.74
4584.93
4279.22
8254.94
9525.68
5676.99
6754.58
1427.14
3268.78
2107.13
3487.23
3437.07
2812.29
2746.48
2953.78
2867.43
12050
12103.2
12318.5
1665.45
444.397
1538.76
2271.38
1139.16
8857.94
8130.24
8329.51
9457.8
546.474
1015.8
4194.42
2149.02
496.805
4074.11
2092.67
2729.82
4018.71
1914.97
1753.63
848.749
5918.82
94.0801
284.488
3463.76
134.003
761.292
3473.7
625.956
3903.03
3375.03
1049.47
1209.03
787.906
867.726
2307.53
1173.94
2550.89
934.61
1472.54
1037.63
1639.11
247.883
4793.38
160.128
158.16
4633.79
1596
1479.16
8550.04
2667.52
2095.84
4845.18
4740.22
3303.83
4050.22
5236.4
5408.51
3141.63
6035.5
4398.76
2269.59
11284.3
10826.5
3922.67
758.806
4384.25
6285.76
628.235
754.64
749.952
3254.11
2734.41
3118.7
10264.7
2556.07
3728.84
2732.71
7869.23
9452.94
1010.43
1596.43
2708.51
8455.48
8002.87
1795.81
1287.35
4507.65
336.475
4554.7
2987.37
11167.6
1423.16
3514.75
4020.15
4506.74
4950.65
12103.4
11337.4
11712
12064.7
11392.8
4295.62
3917.07
2116.96
10158.8
10973.6
2672.53
2629.53
4139.31
2747.37
7583.14
7611.7
8222.2
3149.12
2945.16
7314.81
2353.06
2492.62
5647.21
368.36
400.777
370.852
365.437
5894.76
429.892
350.32
5223.99
6004.42
401.675
394.8
378.699
400.52
5991.76
6419.24
379.078
374.126
391.356
380.506
6264.62
10342.3
9207.44
9111.02
8822.45
8963.43
10302.5
5164.2
863.061
5313.53
4422.31
1839.42
4875.4
7494.25
7035.25
1960.85
3225.33
573.504
768.081
3074.3
145.488
2670.84
2464.27
2785.09
3848.56
2821.17
1995.45
6052.33
6186.69
603.715
2592.65
634.764
1330.4
2025.94
2942.66
3367.39
1175.24
4151.03
3907.28
3013.78
1816.12
1426.41
3130.34
4935.63
1173.81
2350.07
2169.61
433.196
2459.14
452.059
338.362
340.004
2061.59
2247.94
2180.69
514.906
585.928
2463.8
2454.64
2852.61
2793.11
873.868
2368.04
771.856
848.926
648.507
744.984
2210.81
434.937
388.33
2949.56
989.522
530.884
1015.23
1034.05
3283.08
526.11
495.692
2406.73
2640.34
5953.57
5390.37
7234.44
6589.06
3333.11
3383.82
3278.72
3341.94
330.843
1001.94
3857.56
1998.41
1029.6
1145.05
2196.64
4114.75
3324.71
1212.5
1294.04
1517.29
3497.54
504.511
3213.33
3119.87
2202.31
2019.05
2613.12
2278.28
1845.99
1798.88
1975.76
1872.89
10138.3
14723.7
13518.9
7723.66
3173.85
9340.79
10647.9
10602.6
13059.9
12790.2
12053.7
2880.93
2779.43
3302.59
13879.2
5156.59
12887.6
8086.68
7996.73
8320.38
2306.42
2167.96
2456.31
2931.18
5011.93
4795.93
2323.14
2459.79
2348.33
4421.7
5632.3
5213.33
7773.59
7664.82
8036.21
21908.9
22687.6
23006.7
37216.7
34589.7
37956.3
34821.1
32603.2
28129.9
4256.83
11882.4
14915.4
32173.1
30024.7
32893.1
1394.76
1693.56
1607.4
2577.19
2780.73
2558.27
27852.6
26652.3
26472.7
2955.6
2968.06
2408.2
2108.13
1641.45
1036.98
136.762
334.822
2328.01
2412.59
2351.54
2768
2399.9
704.896
376.882
29342.5
30443.1
25648.6
10145.5
9980.31
9506.64
11353.8
10003
9286.38
10582.9
10637.5
9763.87
3776.26
3212.28
3036.85
1283.77
7172.07
8125.34
8227.97
1703.71
1063.64
945.259
630.469
556.158
954.117
1520.46
366.466
741.141
11585.5
11686.2
13152.3
1873.69
1528.11
1566.95
1322.73
784.13
1609.84
1657.87
1902.22
4621.85
1189.98
4519.7
4245.85
4157.84
4795.86
9545.04
3325.62
8597.89
3993.29
7728.22
7439.93
6875.8
2600.76
2431.36
2605.27
19767.8
21604.4
20284.9
506.118
997.845
404.814
872.033
12570.3
13979.2
4672.87
826.85
1353.24
810.899
10474.3
8378.21
8148.82
17981.3
17125.4
22170.8
1990.01
2025.48
1886.43
483.835
345.335
1593.17
1785.23
1861.66
13898.4
14580.2
16000.4
11735.3
13077
12708.6
242.398
2091.04
294.787
661.223
802.974
411.008
501.127
622.025
472.027
7807.21
9569.49
10226.4
499.317
417.958
2629.44
2648.57
2363.03
718.414
8143.72
7936.84
7862.35
17701.2
18364.1
18837.7
17126.8
17929
17016.4
4529.15
5162.78
5720.52
4096.3
4217.03
4126.85
13999.5
9410.71
9357.3
11138.4
9706.74
12609.6
9303.39
9349.47
11074.6
934.112
4378.09
4273.94
4145.03
2334.46
2318.72
2874.99
1001.8
8729.26
9507.04
10178.4
8207.13
1895.91
11242.7
10397.4
9588.63
8994.07
2382.77
2812.43
10004.2
2627.09
9889.04
10538.4
8922.72
2351.91
2207.48
2936.79
2982.84
29717.8
23447.4
24095.1
12801.2
12583.7
13370.1
12361.5
12775.6
12131.2
1641.75
5439.96
6594.55
5819.14
7460.19
8110.76
8327.85
6586.42
7666.78
6000.99
2481.73
3018.97
2329.76
2276.33
172.889
206.961
257.449
4078.23
2901.32
2522.11
12880.1
5079.9
14008
15429.4
13406
13108.6
14087.7
13754
16052.3
602.538
590.68
497.058
479.693
8299.26
7980.63
7924.32
3589.68
4441.53
4593.2
296.099
19043.1
18476.2
15036.4
5000.4
5366.62
4177.28
5478.53
5684.58
2123.52
17846.6
17904.7
19944.8
16936.4
14716.1
14417.9
15188
14933.9
16870.6
350.311
397.42
431.132
430.614
7966.59
7542.09
7439.31
2576.35
2378.91
2832.03
4392.8
4166.06
4868.71
4714.86
3241.86
3311.93
4921.98
5066.85
4204.75
4241.03
2646.77
3217.76
2825.75
1203.84
8861.38
9449.59
9024
5992.34
6740.82
6221.26
8535.86
8514.47
8738.3
8152.96
8274.14
8321.34
4338.4
5437.47
5579.46
966.131
447.387
410.95
3289.73
3247.84
3279.58
811.217
3199.61
2581.08
5410.65
5589.91
4857.68
6974.78
6792.58
7163.64
6022.81
6408.43
6563.77
2184.41
1029.24
1313.78
1339.93
3333.77
3447.96
1198.31
1605.16
6397.88
6764.12
6660.07
746.945
779.109
630.495
565.02
5513.38
6217.58
6012.42
9616.78
4221.3
8491.94
3939.23
3679.92
3986.29
1612.99
1449.74
1480.07
1771.62
1729.63
2257.03
2456.99
2049.75
6780.88
7172.38
7018.9
986.458
1263.83
1627.14
1932.62
7204.26
5916.24
4350.58
2864.46
2898.26
2950.69
2980.07
9795.13
10721.3
10739.5
1846.98
2223.23
3469.51
4182.14
3567.64
4324.77
4142.84
1704.28
5590.55
6987.05
6278.74
522.196
201.757
639.294
613.712
1486.3
1137.69
1480.81
1222.28
1516.44
1351.06
1596.1
2180.77
2062.32
2759.81
1509.91
9552.44
10407.8
11099
2911.27
1881.1
2920.23
3225.68
7446.24
6876.57
5681.02
7271.38
7663.5
8657.24
541.196
555.608
1564.7
1214.05
584.233
2601.14
2282.8
2432.07
315.919
252.872
177.204
146.192
12970.6
11482.5
11052.7
1230.84
1305.09
1778.58
2210.95
1877.54
3020.54
1244.57
943.43
1119.01
2087.03
2216.71
621.719
626.327
1723.41
4073.49
3001.53
968.131
1541.53
8698.02
9970.41
9284.53
5166.26
4931.15
5519.42
4601.58
4289.39
4648.1
1458.48
4696.75
2072.83
2043.62
1607.29
7758.48
2994
7588.89
1576.26
1496.5
1650.03
1325.04
1160.49
2236.97
7356.09
7115.45
7644.73
570.318
452.988
5428.66
2418.27
2960.41
3833.9
3796.32
1625.38
1669.73
2251.36
1395.16
7374.89
7319.76
3103.1
2826.6
2322
1771.15
10472.3
9134.92
10547.8
10553.4
9758.78
8857.29
10825.5
10455
11108.2
3661.25
4608.4
4340.2
3731.93
3857.32
2766.07
907.765
555.997
11442.2
10912.9
9953.98
12029.3
11519.3
11481
562.573
573.925
1497.54
1166.52
6510.65
7952.81
9533.02
5048.22
623.516
4129.28
9683.64
10667.4
10312.3
6881.69
4418.78
546.801
8454.01
7284.14
8758.05
4909.07
2102.6
4316.5
4848.43
5230.8
2607.82
7988.76
7171.41
7765.45
6367.43
7169.21
609.395
669.104
2576.5
2638.03
7110.97
6951.81
8089.18
2067.36
2620.22
2843.98
573.327
835.763
439.973
480.664
1221.59
1173.62
1031.94
668.397
1432.67
1053.9
1096.13
1062.43
6155.91
5760.52
5926.7
5361.09
5293.74
5650.57
4511.01
4932.86
4985.8
443.019
2300.5
484.76
945.572
898.737
560.806
596.758
967.687
971.278
1320.42
1291.25
971.306
660.664
706.415
2186.14
2148.28
3468.94
3505.15
7973.55
7961.5
8134.95
465.985
465.297
324.931
462.383
1269.28
1293.24
1107.11
8156.05
7990.82
8091.18
7497.9
7793.5
7978.08
4658.32
4834.82
4309.07
3055.2
4271.34
4354.53
4503.28
17521.6
15967.8
19142.6
3563.12
7269.33
1505.74
2415.88
5539.44
2293.27
10432.5
11181.1
10050.3
5390.55
6685.81
2743.44
4102.1
2024.55
2143.65
1836.89
1928.71
2982.38
2585.03
2463.95
6753.29
6597.16
6525.68
5234.89
6168.3
6561.67
1725.95
1670.89
1585.69
1021.6
1164.44
903.654
1567.85
1718.22
1801.64
1637.6
1661.65
1544
2176.54
2985.12
3111.91
3374.7
3254.87
3702.07
2509.46
1667.57
1405.23
2443.9
1091.7
4280.47
3754.64
4163.91
2985.43
3767.12
1516.08
2421.62
1937.06
3853.99
2638.95
2687.47
2488.06
2565.95
3763.78
471.441
2177.13
2050.48
2919.72
3050.76
3183.59
2814.62
1859.08
1897.42
1782.2
1820.96
2748.32
497.718
462.758
54.7558
1151.17
1111.85
1116.27
3188.62
235.363
956.03
402.628
1634.85
1513.96
1200.58
488.187
483.198
409.12
2584.95
3004.94
680.543
695.33
428.212
405.055
4929.2
3379.55
10030.4
2425.46
2668.37
863.108
4775.6
4929.75
5127.03
3108.98
2399.12
2401.37
2387.15
2394.7
3061.72
631.792
661.923
5792.69
6019.48
4307.03
3118.32
2398.59
2390.78
2402.96
2402.41
3130.56
3497.17
3343.69
3986.49
2311.5
2300.46
2214.75
2318.69
1226.39
1149.64
1149.64
1683.42
409.894
438.148
367.312
385.869
562.098
360.146
315.924
780.252
428.774
1521.47
1151.37
825.16
1533.41
211.893
555.825
459.384
176.6
447.179
327.726
917.913
683.284
805.991
1445.99
1487.48
1905.12
2013.95
1703.79
1677.67
1451.48
1512.05
1563.03
1161.88
1358.17
1358.94
2711.72
3484.7
3134.19
3452.78
3518.1
2784.16
1547.7
1553.52
1375.93
1448.01
2385.31
1792.12
1165.99
1209.22
1222.39
1120.62
1424.96
2152.64
2593.36
2433.71
1911.67
941.736
3489.54
2403.46
2210.63
2674.67
2568.84
3712.58
4350.4
4894.78
3468.47
2948.6
2597.32
3959.7
2946.95
1216.54
2101.71
2144.37
426.83
1491.55
1294.07
2505.48
1971.07
1365.67
2632.08
2400.09
3255.81
706.125
642.288
555.43
1350.59
2723.55
1654.7
1762.7
1997.22
1807.51
2927.54
2511.85
2218.47
1180.03
82.3376
93.3218
1970.92
2159.04
2024.56
563.722
502.455
680.451
331.2
385.06
170.627
1651.65
1709.97
795.256
1284.41
913.762
777.735
1539.55
1655.4
1481.12
2905.23
3337.62
3014.12
2503.53
2932.63
2041.64
1441.54
1476.61
1316.76
1393.97
1957.54
504.197
2415.17
333.002
417.886
747.265
747.119
576.369
704.061
371.833
697.217
948.344
108.872
514.635
890.522
935.049
1028.51
846.368
644.495
462.934
454.589
332.895
450.465
421.014
499.45
1781.39
3732.74
1116.87
9556.77
9135.69
7964.69
526.393
3045.94
2009.78
2045.93
1935
1973.32
2997.58
1713.49
7536.07
3109.25
2796.23
2546.04
3021.53
2863.93
1751.76
516.945
499.414
590.522
453.706
1880.75
1144.85
605.727
981.869
434.513
449.298
1163.8
4011.85
4261.57
4356.91
2526.64
2296.16
2305.58
2489.84
932.17
1161.59
1832.01
1332.06
3286.64
2801.46
3424.57
544.447
3537.39
4441.07
2505.35
2818.04
9313.26
8954.17
7423.95
10583.8
10068.5
10256.3
546.43
3065.67
3061.56
506.98
10232.4
1766.02
6237.4
1729
1567.91
3491.88
2761.95
2440.9
4049.08
3603.11
4089.07
3112.97
2945.66
4711.55
4368.28
4403.34
4608.82
4213.37
4157.18
4365.61
4288.44
4664.57
3061.93
3091.4
4494.02
3000.94
12285
4857.39
2994.84
8635.39
7512.05
6317.39
2987.6
1046.86
1058.08
1018.15
1034.18
2985.04
2952.68
1088.43
1111.59
1067.18
1076.41
2964.75
9925.94
10098.4
8272
7108.6
8636.11
9364.32
4211.49
2395.99
2384.23
3019.01
1852.56
1810.76
1773.35
1822.94
179.052
424.251
4697.27
4849.18
4260.72
6175.98
5787.99
6087.78
582.569
669.314
514.877
3604.15
3286.84
4158.14
1101.54
721.152
887.073
1026.26
2428.49
2891.63
1489.76
3440.35
832.197
923.523
576.205
550.002
3469.82
3029.48
2966.36
3146.69
3068.12
3464.13
3396.11
2815.76
2695.48
2957
2828.44
3384.66
529.792
523.318
1267.02
1236.27
1339.96
1460.43
1585.63
1150.96
1144.31
1213
1491.17
2083.38
2229.29
1857.09
1966.43
1547.85
772.607
1099.57
943.296
299.939
244.593
425.738
441.108
2431.95
2493.02
2516.19
374.799
412.08
3218.52
2721.33
2726.83
2700.8
2708.21
3236.67
3129.2
2730.48
2748.39
2730.35
2733.32
3147.86
394.366
417.998
2729.88
2385.95
3697.22
3649.83
4625.02
5086.12
5009.43
5131.38
5145.43
4692.35
4152
4691.55
4550.88
4909.42
4811.68
4288.86
4548.73
4515.89
2918.28
3133.62
4614.86
4575.3
4722
4806.47
3215.96
2836.3
4448.55
4607.58
2735.54
2857.12
3583.64
3760.95
3674.02
1510.87
2802.86
2829.72
6804.25
7240.61
7648.03
856.481
874.023
816.009
849.174
816.761
747.826
867.985
858.186
1081.12
1131.64
937.428
902.709
1165.78
1132.08
1321.99
1343.26
3007.05
1496.95
1003.16
2268.75
763.796
4068.06
4073.34
4385
3412.61
2357.49
2422.82
2246.98
2301.01
3325.86
5156.18
5211.9
3991.35
4632.47
5012.96
5134.04
778.379
3379.07
3265.8
3200.33
3313.64
3230.34
3085.58
2793.75
3424.28
3405.16
6665.46
6650.92
5963.33
5116.76
5895.96
6103.99
2544.23
1706.7
1744.36
1633.75
1670.09
2478.01
2004.33
400.462
613.606
597.018
637.484
613.841
355.89
1144.94
1249.5
1046.85
3223.44
309.794
232.798
441.332
561.434
501.487
722.406
651.933
537.663
496.671
497.552
981.462
1166.06
1138.82
1206.19
1184.52
997.691
897.217
1062.05
1032.61
1115.42
1088.08
920.281
771.421
321.449
573.122
609.569
816.086
764.166
4437.47
4895.63
4768.18
5297.48
5119.04
4615.05
4181.28
4659.37
4700.28
4686.26
4648.36
4172.57
3234.03
3025.78
2726.21
4332.27
3870.46
3720.39
1192.82
1561.41
2947.38
2409.14
2387.22
2582.27
2472.37
2971.29
4896.76
5257.26
5316.26
4873.79
5065.66
4632.86
2458.38
1954.37
518.784
2766.37
3783.03
3401.65
2966.25
1694.9
1693.09
2282.88
1981.03
1543.37
2123.41
2580.83
2481.63
3046.32
2370.86
2414.11
2379.04
2364.45
3063.68
3323.52
2551.12
2506.4
2616.19
2904.19
3113.28
1130.31
1216.84
857.972
2871.45
2856.32
4525.83
4072.23
4095.54
4111.47
4074.68
4524.53
4641.01
4241.84
4208.66
4140.98
4198.21
4614.64
2934.12
2904.11
932.101
928.033
2025.19
1725
4159.13
3096.68
3366.1
3902.44
4357.57
3874.1
3591.41
1482.56
632.041
550.456
2996.12
2909.68
3071.16
2069.49
2659.63
2805.38
3491.49
3188.13
3166.12
3161.74
3181.02
3463.38
649.507
615.033
2783.7
923.73
940.837
920.341
914.902
2725.24
2927.76
985.165
1001.55
953.198
970.404
2898.77
499.345
489.217
461.682
482.894
1637.6
1048.49
1103.27
830.687
759.982
538.156
474.936
918.956
1534.38
1533.01
1670.78
1018.14
1323.48
2515.92
1860.95
1578.04
1349.97
3767.84
3662
3434.46
3653.92
820.517
736.649
573.742
909.249
870.142
969.787
551.887
538.126
469.133
752.593
779.379
214.931
313.138
3971.86
2715.85
2813.68
567.538
2733.56
3682.06
3650.23
2763.63
2476.31
2768.51
2769.47
3937.76
163.236
193.67
1870.4
1359.79
1404.85
639.48
765.485