/*--------------------------------*- C++ -*----------------------------------*\
  =========                 |
  \\      /  F ield         | OpenFOAM: The Open Source CFD Toolbox
   \\    /   O peration     | Website:  https://openfoam.org
    \\  /    A nd           | Version:  dev
     \\/     M anipulation  |
\*---------------------------------------------------------------------------*/
FoamFile
{
    format      ascii;
    class       volScalarField;
    location    "1700";
    object      yPlus;
}
// * * * * * * * * * * * * * * * * * * * * * * * * * * * * * * * * * * * * * //

dimensions      [0 0 0 0 0 0 0];

internalField   uniform 0;

boundaryField
{
    inlet
    {
        type            calculated;
        value           uniform 0;
    }
    outlet
    {
        type            calculated;
        value           uniform 0;
    }
    ground
    {
        type            calculated;
        value           nonuniform List<scalar> 
5358
(
44566.7
44567.8
44567.9
44568
44568
44568.2
44568.3
44568.5
44568.8
44568.8
44568.8
44568.5
44568.3
44567.9
44567.7
44567.5
44567.4
44567.3
44567
44567.1
44567.4
44567.5
44567.5
44567.6
44567.6
44567.7
44566.4
44566.6
44566.7
44566.6
44566.5
44566.4
44566.4
44565.3
48110.8
48109.4
48109.3
48109.2
48109.1
48108.9
48108.3
48108.9
48108.4
48108.1
48107.8
48107.3
48106.5
48106
48106
48105.7
48105.1
48105
48105.6
48105.7
48105.6
48106
48106.6
48106.2
48106.8
48107.4
48106.7
48107.6
48107.5
48107.7
48107.9
48108
48108.1
48109.3
50579.1
50577.5
50577.5
50577.4
50577.3
50577
50577.3
50578.1
50577.8
50577.8
50578
50578.2
50578.4
50578.7
50578.6
50578.5
50578.6
50578.5
50578.2
50577.8
50577.6
50577.5
50577.5
50576.6
50576.8
50577.8
50576.2
50576.5
50576.1
50576.4
50576.5
50576.7
50576.6
50578.4
51870.3
51867.6
51867.1
51867.4
51867.5
51867.1
51867.9
51867.8
51867.7
51867.8
51867.7
51868.2
51868.3
51867.8
51867.8
51867.3
51866.8
51866.8
51867.1
51866.6
51866.8
51867.6
51867.7
51867.7
51867.6
51868
51867.1
51867.5
51866
51867.1
51866.6
51866.7
51867.1
51869.8
52383.7
52380
52377.9
52377.5
52377.3
52376
52376
52374.1
52373.2
52371.3
52369
52365.1
52362.4
52360.1
52358.6
52357
52355.3
52355.7
52357.4
52361.1
52363.4
52364.7
52366.6
52368.8
52371.2
52372.6
52373.5
52375.5
52375.9
52377.6
52376.7
52377.4
52379.3
52382.6
52437
52433.1
52428.4
52426.4
52426.1
52422.5
52418.9
52413.6
52408.2
52400.6
52393.3
52384.7
52374.6
52364.3
52358.9
52353.8
52351
52353.4
52359
52365.6
52373.7
52382.4
52389.9
52397.2
52403.4
52409.1
52413.4
52417.8
52421.5
52424.6
52425.3
52426.4
52431.1
52435
52230.4
52225.3
52218.8
52214
52211
52204.1
52195.7
52185.1
52173
52158.3
52139.4
52115.2
52092.2
52068.5
52050.1
52039.1
52035.3
52042
52055.6
52075.8
52095
52111.4
52128.5
52144.2
52159.8
52172.8
52183.2
52193.1
52201.6
52207.5
52211.4
52214.7
52222
52225.6
51885
51880.1
51870.5
51861.6
51854.3
51843.5
51828.4
51809.2
51784.9
51754.5
51719.8
51679.9
51627.5
51573
51533.2
51511.4
51508.2
51523.4
51550.8
51587.2
51627.3
51665.4
51700.1
51731.4
51759.7
51784.5
51805.8
51823.1
51838.1
51848.6
51855.2
51862.7
51872.6
51877.5
51474.6
51468.8
51455.7
51442.9
51429.6
51413.1
51389.8
51358.7
51322
51275.5
51211.4
51128.8
51051.6
50981.4
50925.3
50893.9
50890.1
50910.5
50948.2
50996
51047
51103
51162.8
51219.4
51269.1
51312.7
51348.1
51377.5
51402
51419.4
51430.6
51443.5
51456
51462.5
51042.4
51034.7
51020.1
51001.6
50981.5
50955.6
50924
50878.9
50819.8
50746.3
50667.8
50571.5
50460.7
50350.1
50256.8
50205
50197.8
50226
50286.4
50360.3
50438
50516.1
50591
50659.1
50725.4
50794.8
50857.8
50903.9
50938.1
50963.6
50981.5
51000.5
51016.3
51024.4
50613.5
50604.3
50588
50564.8
50537.2
50501.2
50454
50396.5
50328.9
50257.9
50169.2
50049.4
49896.1
49734.2
49588.2
49487.8
49443.3
49463.4
49555.4
49667.4
49788.2
49903
50009.4
50104.8
50189.3
50267.8
50346.1
50418.7
50470
50505.9
50534.6
50559.4
50579
50588.7
50202.9
50192.7
50174.3
50147.9
50113.2
50067.8
50009
49954.2
49891.9
49826.6
49767.5
49800.5
23294.2
22958
22474
22126.3
22162.2
22505.4
22743.7
22922
23091.8
23259.6
23409.7
23537
23640.6
23724.6
49897.9
49955
50014.9
50065.8
50104.9
50135.8
50159.3
50170.6
49818.1
49807.7
49787.9
49759
49719.1
49667.4
49616.8
49565.8
49514.3
49487.9
49580.4
50215.6
22462.6
23844.6
10203.6
9701.62
7450.49
11233.6
21104.6
21133.2
21397
21706.1
21953.6
22160.3
22320.6
22442.1
49529.8
49543.2
49600.1
49654.2
49702.2
49739.2
49766
49779
49463.3
49452.8
49432.2
49402.2
49359.5
49314.3
49269.9
49222.5
49185.9
49214.7
49518.8
50931.9
24438.4
32382.6
9531.16
7117.25
9533.15
25291.3
21815.3
21108.7
21557.8
21852
22047.2
22186
49233.8
49182.7
49235.2
49286.8
49334.1
49374.8
49403.7
49418.1
49139.6
49128.3
49108.6
49078.3
49038.5
49000
48957.3
48909.8
48880
48932.5
49360.7
51271.3
25300
13551.1
22183.6
12206.8
12576.4
3400.46
12988.8
13843.5
36758
23565.9
21863.3
22035.3
22202.7
48982.9
48872.6
48915.6
48966.1
49008.7
49045.7
49074.6
49090
48845.1
48834
48815.5
48786.2
48752.2
48716.2
48670.3
48617.4
48577.3
48607.4
49069.6
51380.3
26102.1
8296
2301.75
3326.22
5242.82
3794.52
2550.75
4993.44
3940.99
33469.6
26007.2
22577.1
22109.4
22250.3
48746.4
48605.8
48637.9
48684.9
48724
48754.7
48779
48794.4
48577.3
48567.3
48550.4
48523.2
48493.3
48456.3
48405.5
48343.3
48278.9
48265
48797.8
51702.5
27196.9
8096.22
27290.8
27833.8
22299.9
42240.9
31171.3
22841.4
22396.3
22305.8
48496.1
48366.6
48392.7
48435.3
48472.6
48497.5
48516.4
48528.9
48333.4
48324.2
48309.4
48284.9
48256.9
48217.6
48161.9
48088.5
47994.4
47949.8
48640.4
52145.6
28108.9
15749
13332.4
17238.6
9202.28
35339.9
29520.8
22878.1
22388.4
22377
48228.7
48137.5
48168.9
48209.4
48244.7
48267.2
48281.3
48290.8
48109.9
48101
48088.5
48066
48037.3
47995.4
47935
47850
47723
47646.1
48418
51982.9
27937.1
27055.6
1433.55
2171.97
19628.4
31339
17835.8
29238.9
26890
21858.6
22223.4
22445.7
47952
47907.5
47954.7
47999.3
48034.3
48054.5
48065.7
48074.4
47901.4
47894
47882.9
47859.9
47829.6
47784.8
47718.2
47618.8
47450.9
47315.1
48044.3
51288.3
27270.7
25151.3
6211.84
2231.15
1335.94
2295.78
2500.8
27121.8
27169.9
21872
22508.7
22484.8
47665.5
47675.4
47745.2
47796.2
47833.6
47853.7
47866.3
47874.4
47705.4
47698
47686.2
47662.9
47628.7
47579
47503.4
47386.1
47169
46944
47530.7
50278.8
26295.1
24100.4
16670.4
2223
1872.94
7174.09
19631.9
24456.2
33802.7
28908.3
22550.2
23706
22494
47371.2
47442.3
47538.4
47596.7
47638.4
47663.2
47677.1
47686.3
47518.5
47510.5
47498.2
47474.3
47434.1
47376
47289.6
47151.3
46880.6
46541.5
46919.8
49145.1
25237.1
23399.9
17071.8
12546.6
13968.7
13484.2
17040.6
16758
26526
35409.5
29654.8
23531.6
25400
22449.6
47077.4
47213
47334.6
47402.5
47450.5
47480.2
47495.7
47505.7
47337.4
47329.2
47315.8
47290.9
47246.3
47177.1
47075.6
46915.4
46594.3
46132.8
46269.5
48018.2
53122.2
50711.8
49730.8
43967.2
40674.6
36951.1
32148.1
49498.3
66782.7
76378.8
65018.9
60973.3
55550
47219.1
46812.5
46998.7
47142.7
47217.1
47269.8
47301.5
47318.9
47329.7
47161.1
47152.3
47137.7
47111.1
47063
46984.5
46867.2
46677.6
46308.9
45736.9
45650.6
46858.3
51820.3
51524.7
53407.5
52135.4
47485.1
42267.9
40501.3
51761.7
64146.5
71279.5
62534.7
59392.3
54418.2
46877
46580.7
46804.7
46957.7
47036.8
47092.5
47126.5
47145.5
47156.4
46988
46978.6
46963.7
46936.2
46884.3
46800
46668.4
46450.2
46034.7
45364.8
45072.2
45719.6
50405
51936.1
55636.7
56274
51928.5
45359.3
44353.6
53884.5
63030.6
67823.4
61891.9
59182.4
53502.2
46626.6
46363.2
46617.2
46774.6
46859.4
46917.4
46953.2
46972.7
46984.5
46817.1
46807.7
46791.6
46762.5
46707.4
46617
46473.4
46231.9
45773.1
45019.3
44542.7
44668.9
49019.1
51471.9
56320.2
58594.1
54428.2
46872.3
45740.9
55227.4
62523.1
65445.5
61718.2
58837.7
52718.3
46430.1
46159.6
46433.9
46593.6
46682.7
46743.7
46781.2
46801.2
46813.7
46649.9
46639.7
46622.5
46591.3
46532.1
46436.2
46283.7
46022
45527.7
44705.5
44068.1
43733.9
47726.5
50238.8
56044.6
60024.1
56348.6
48144.1
45569.6
56032.2
62228.3
63749.6
61400.1
58242
52038.6
46266.1
45971.8
46255.7
46416.2
46507.9
46571.4
46610.5
46631.7
46644.9
46484.9
46474.6
46455.9
46422.2
46360.4
46259.7
46100.4
45822.9
45302.4
44427.5
43654.1
42926.2
46557.2
48596.9
55470.5
60792.2
57466.8
48753.5
45560.9
56465.3
61975.7
62507.3
60847.4
57512.7
51445.1
46123.6
45799.5
46084.2
46242.3
46336
46401.9
46442.4
46464.8
46478.1
46325.3
46314.5
46294.4
46258.5
46194.6
46091
45927.1
45638.9
45099.1
44187.6
43301.3
42243.7
45509.1
46955.9
54995.7
61173.9
57914.4
49017.4
45505.4
56592.6
61682.3
61527.7
60133.7
56737.6
50919.6
45996
45643.4
45923.3
46076.9
46171.1
46236.9
46278.9
46303.3
46316.5
46167.6
46156.5
46135.4
46097.8
46032.8
45927.8
45760.8
45468.1
44917.9
43983.4
43006.8
41682.3
44605.9
45545.9
54920.4
61527.6
58245.1
49283.5
45647.4
56625.4
61422.6
60751
59381.2
55986.8
50453.3
45881.5
45503.7
45771.6
45917.4
46010.9
46076.2
46118.2
46143
46156.6
46022.9
46011.6
45989.7
45951.3
45885.9
45781.2
45613.4
45319.3
44764.6
43815.9
42768.1
41225.9
43813.1
44399.8
54795.2
61445.4
58102.9
49224.9
45544.5
56267.9
60944.4
59947.9
58524.3
55216.4
50019.4
45780.5
45384.8
45638.7
45775.3
45866.9
45929.8
45972
45997
46010.2
45873.3
45862.2
45840.3
45801.7
45737.1
45634.2
45468.4
45177.6
44627.2
43677.5
42577.6
40887.8
43171.4
43919
55517.4
62127.9
58882.9
49753.1
46115.9
56521
60807
59422
57861.5
54572
49637.2
45685.9
45276.7
45511.2
45634.6
45721.6
45781.2
45821.6
45846
45858.6
9798.13
9806.82
6556.04
23207.3
16851
11154.9
23453.2
9643.99
3671.87
16864.7
1397.19
7847.82
12199.1
1770.62
1078.17
1357.28
2919.73
26166.3
5730.37
874.604
13256.9
1836.55
4106.66
22792
14099.7
1852.75
3556.72
4728.85
9497.09
3089.96
26731.3
4209.48
9763.36
3364.21
7385.87
19498.2
3064.35
8803.33
20533.2
28608.1
8402.37
3121.01
21965.1
46775.8
18721.9
16092.9
442.045
1088.69
11721.9
696.699
10067
10467.3
9549.32
21570.5
12860.6
1801.28
19932.3
431.212
2597.98
3835.58
1694.3
5252.67
15119.8
11986.4
1494.06
321.796
2196.61
1603.31
229.446
438.848
7063.44
7066.26
8576.92
8062.61
12008.9
28630.6
8510.01
480.628
15646.6
6107.9
440.142
13947.2
15828.7
3893.72
8530.6
5575.45
12050.5
16385.3
656.984
8121.02
13833.9
18097.4
16167.5
5387.96
3995.37
22052.1
10071.5
21664.8
22289.5
9905.24
11303
13159.3
5060.3
21460.6
13965.2
10653
21057.1
21153.8
12944.6
20004.3
34958.7
13912.6
719.452
7658.27
4307.55
2884.38
1307.49
5956.83
9398.14
11160
9505.7
2389.21
8267.85
1515.67
25302.3
29881.9
24093.9
20931.3
39424.8
29192.5
13158.6
14093.1
25725.5
12128.4
1251.79
4695.64
12226.7
8389.72
4990.65
1855.87
2983.59
307.25
13315.7
3875.13
13517.8
8012.44
27765.1
26931.2
31666.6
14727.1
16534
26600.6
8195.4
11947.6
3841.44
3587.11
12710.5
58524.9
25358.7
4271.51
16752
18158.2
3777.57
5883.39
4660.06
14478.9
40837.8
20010.6
16840.4
16659.8
27768.1
7886.29
2284.4
2419.07
11931.8
11352.8
28838.7
2771.34
3424.58
10932.6
3483.73
2780
7425.87
9166.96
1975.18
22850.2
8594.92
11561.1
4820.85
29221.6
13955.7
9830.89
7956.04
2844.57
2245.84
3645.42
4119.42
8816.28
22763.5
8792.46
8246.36
4193.18
4394.8
25926.5
1065.08
20811.8
3317.59
2465.11
22666.6
4218.45
3441.22
38621.5
13288.3
4614.39
7365.97
6146.65
4430.44
5870.33
13129.5
2233.27
1764.08
7925.44
6576.27
1016.33
3377.25
1790.94
3849.29
3104.77
2662.34
6175.57
15400.4
18318.4
3001.44
6400.26
7803.27
2668.06
10786
10327
5263.78
12503.8
8933.9
5861.08
10304.2
7051.3
4164.85
1493.93
851.931
22212.8
1245.07
1859.14
7451.69
8889.61
24214.3
7152.11
1551.8
7508.43
23436.5
9757.01
2666.04
624.078
13498.6
2188.07
5725.63
12179.7
1243.01
1052.75
1604.88
2865.73
1556.62
10354.2
105.665
12117.2
1474.12
9084.91
636.106
2482.64
12927.1
1649.69
3512.38
1477.5
5960.12
16282.6
14760
6487.08
5285.68
3206.33
4579.58
4485.53
2800.14
3219.61
1919.1
5678.43
4417.11
7391.88
3453.52
13654.8
4168.08
4265.76
7186.22
1120.31
23790.2
7841.6
4467.2
12921.2
5635.09
4070.27
3784.57
1772.16
7735.23
1704.83
1996.25
1978.39
3006.6
7797.97
1552.83
10960.7
2991.02
2147.98
6042.45
2559.6
21684
2228.58
5275.2
3657.05
11759.3
9604.71
11347.1
3325.2
2344.04
29303.3
10560.2
3605.33
9544.56
8623.35
8030.8
7265.44
5525.02
6183.76
6407.98
5462.95
22725.4
22855.7
9075.73
6033.69
5729.74
6344.5
6129.49
5487.28
21844.4
8921.71
9662.09
9981.44
14900.1
4871.54
3210.85
2603.67
4814.08
1266.16
6638.87
8524.47
7641.1
15399.2
13306.3
3633.92
3000.47
9371.28
7242.3
9605.19
22891.9
5307.31
12123.8
13719.3
15165.9
2408.71
7917.28
15098.7
8164.28
2265.88
771.078
2406.93
919.835
1149.74
2220.06
613.966
3490.18
12456.1
1288.9
6555.06
4224.47
5742.53
4621.16
474.176
2260.06
484.703
1953.61
581.251
6199.53
8418.9
6155.01
5836.94
599.812
997.351
5573.32
6018.65
2519.14
2046.66
2499.48
3124.02
7132.78
7022.95
2691.17
13696.8
8167.88
3629.09
3778.59
1030.81
3563.33
8218.34
7706.49
4412.1
3458.35
4392.43
22296.1
21631.8
21834.3
26177.3
20419.1
29966.4
10308
10722.9
13030.6
7080.84
9058.77
7935.74
9094.01
6084.25
5865.66
26691.7
10231.9
3431.17
12265.1
12429.4
12344.6
11352.2
5436.22
2852.28
14242.9
6117.55
5039.1
5080.59
4262.04
1424.71
638.459
1591.12
1510.81
6820.79
17184.3
16050.7
6503.67
7635.16
2395.72
5836.6
15486.7
14521.7
3479
3098.39
3652.4
2600.9
4397.56
4286.82
17773.6
16042
18243.6
1200.09
8449.76
10105.5
3859.79
3642.85
4113.45
7438.47
6321.77
3104.6
15309.3
12524.2
15683.6
2880.14
2679.45
9605.2
21585.5
24570.3
3690.35
4777.22
5403.12
1046.17
332.611
1450.23
3481.33
3308.87
1037.29
3196.54
98.4108
1391.67
493.198
478.052
4237.71
9180.17
2538.36
6359.16
6487.21
7632.32
2827.39
1140.31
15826.6
14437.8
17341.5
22043.7
21852.8
17910.1
15912
16221
9996.36
550.434
387.892
8620.77
10600.5
4566.12
7599.62
5710.89
3130.53
3007.65
442.96
703.933
15398.7
3722.15
20095
3103.9
3134.67
4186.15
1257.95
11839.9
11950.8
12037.6
1669.33
443.475
1513.27
1821.55
684.669
920.884
2594.31
1929.68
19883.2
9210.17
27091.5
2016.47
1469.2
1018.11
3408.54
2367.67
2752.55
9611.12
3250.26
4264.49
3595.87
3658.43
2848.71
1280.24
3607.87
8747.62
1844.16
1476.04
3321.6
3827.35
23119.1
24214.2
21074
3590.92
9407.68
2109.4
4512.32
2495.67
1511.9
1642.1
3686.75
715.51
1591.6
2641.9
3085.4
1721.89
6458.74
4419.48
136.867
9429.77
8363.81
9630.05
5253.18
5582.61
1992.63
21399
19326.4
17507.7
759.793
2690.75
240
1096.24
1742.02
1363.83
3918.15
4455.65
5677.07
3100.01
2109.76
1834.49
424.828
2518.17
407.513
2170.45
382.687
231.576
440.747
2844.96
3886.56
2346.73
2448.89
557.689
781.972
2502.34
2127.74
471.364
446.019
6239.4
5530.17
6336.88
7647.05
4699.86
5151.9
211.561
515.921
8785.29
8254.72
7779.18
7141.44
7845.51
8684.47
2073.2
2003.38
6368.39
6565.1
6372.2
8159.35
4035.32
17036.3
7768.52
17294.4
10764.4
8426.28
8727.01
268.682
3086.49
2940.82
9725.41
9565.67
9541.32
9621.61
9653.21
10739.3
5974.84
6513.34
5812.51
18461.5
17085.5
17675.5
1620.04
2105.46
1377.12
1349.78
8294.39
6209.04
5250.23
4190.23
554.656
3811.42
368.022
9903.85
16815.4
10160.2
8857.19
2814.36
4443.5
4742.38
10286.3
4577.75
4707.03
12681.3
20185.2
28248.6
22658.8
20142.5
26687
4030.74
12092
5484.27
3741.23
7534.91
8925.23
6202.81
12436.1
12483.6
12297.7
2986.08
2971.53
2956.92
2974.59
8325.03
12383.4
22057.4
8176.48
11186
7885.96
4993.49
7989.38
2976.97
179.521
219.123
3537.83
6334.69
14116.8
840.489
862.908
4343.01
752.335
843.458
4834.15
396.104
929.531
3431.87
3504.98
3314.08
3468.86
1618.09
1211.05
1473.65
1581.21
587.342
406.609
137.058
298.883
425.807
21616.3
23611.9
27170.3
5947.29
5583.07
3550.7
2282.66
5606.71
5401.89
3194.77
3263.8
3124.79
3172.16
2902.26
2415.51
3677.41
3572.04
11793.6
4526.85
4691.18
3981.85
4412.16
11585.8
2991.12
11802.3
11751.7
11476.3
11714.7
3063.4
3125.5
11755.9
11975.7
11218.5
11462.6
3008.7
2645
3212.98
7727.43
7939.89
3372.53
8809.25
8226.09
8237.96
9748.52
9491.8
18103.1
14315.4
9002.14
14506.7
15669
7300.13
9866.37
8459.32
8574.11
7634.64
7952.14
9008.36
2816.92
2541.61
4620.88
5088.8
2428.51
9496.28
8881.58
3778.92
3520
3260.7
4285.29
12381.3
13247.7
11055.1
11676.5
4615.84
1235.51
3081.23
6874.15
6209.9
3248.55
7223.19
2969.92
9106.23
9420.62
10886.9
7483.7
8342.38
8474.27
5806.56
15854.8
15498.7
13082.7
13942
5414.18
2611.76
2412.41
4662.93
5055.19
4105.96
6309.15
5727.9
5375.25
1536.05
1670.74
408.076
347.767
1054.97
2860.9
2807.72
3190.56
357.345
162.831
1650.73
350.997
602.904
499.976
496.158
2939.64
962.811
1010.39
874.315
942.558
2821.28
2712.07
992.159
2715.42
2650.81
813.107
589.21
10518.4
4294.13
4868.8
4235.2
4218.58
10337
3082.31
4046.14
1407.04
8895.24
7485.29
7705.44
5798.75
6723.58
8461.24
2940.36
3024.45
10171.5
5097.05
4396.65
652.156
3720.22
1739.47
1748.46
1671.88
6225.33
6200.96
5728.01
5977.69
1987.32
3049.38
3084.63
8003.16
7259.26
7023.67
7680.19
7513.93
8612.06
4092.55
6417.38
3168.95
618.378
5445.65
5426.33
4540.31
4540.66
4586.75
4584.94
4279.39
8256.17
9525.35
5676.76
6756.12
1426.93
3275.54
2106.44
3488.49
3439.05
2812.35
2746.56
2953.87
2867.48
12050.3
12103.5
12319
1665.94
445.236
1540.11
2270.48
1140.54
8858.13
8130.36
8329.65
9457.98
545.883
1015.41
4179.99
2147.32
496.237
4074.08
2092.62
2729.86
4018.69
1914.05
1753.76
847.643
5919.03
94.2507
282.827
3460.78
134.307
763.372
3468.54
621.694
3892.88
3377.86
1050.14
1209.74
788.889
868.738
2306.56
1175.97
2551.11
935.657
1473.79
1038.84
1639.86
247.934
4797.21
160.046
158.134
4632.74
1594.75
1477.64
8554.48
2668.33
2096.69
4844.21
4737.96
3287.45
4049.93
5237.24
5410.5
3142.38
6040.58
4399.86
2271.83
11285.2
10828
3924.16
758.898
4384.37
6282.54
629.317
755.991
751.148
3253.36
2735.39
3119.53
10264.9
2556.36
3729.34
2733.73
7869.63
9452.73
1010.94
1596.71
2709.38
8455.6
8002.88
1796.57
1287.66
4507.22
336.543
4555.27
2987.77
11170.5
1423.37
3515.23
4020.63
4508.16
4951.29
12103.3
11337.1
11711.6
12064.5
11393.2
4295.6
3917.21
2117.06
10158.9
10973.8
2673.46
2629.93
4152.49
2748.4
7583.27
7611.44
8222.49
3148.84
2944.77
7314.12
2353.42
2493.1
5646.55
368.248
400.535
370.907
365.481
5895.24
429.595
350.08
5223.95
6004.7
401.658
394.798
378.658
400.501
5991.99
6419.86
379.107
374.178
391.359
380.528
6265.11
10336.6
9203.52
9107.36
8817.77
8958.6
10296.8
5161.82
863.069
5310.97
4421.05
1838.82
4873.83
7491.33
7033.44
1961.03
3221.13
572.411
763.664
3070.36
144.499
2671.34
2464.61
2785
3848.33
2821
1994.84
6051.51
6186.19
603.395
2588.61
634.023
1329.63
2023.65
2938.73
3363.17
1174.12
4149.89
3904.77
3010.55
1814.43
1425.13
3132.74
4937.24
1174.45
2349.86
2169.38
433.316
2460.97
452.033
338.201
339.501
2060.82
2241.52
2175.44
513.558
583.493
2454.3
2446.66
2856.55
2796.38
873.955
2369.63
772.718
849.874
649.146
745.797
2212
435.705
388.97
2952.36
990.364
531.335
1016.16
1034.87
3285.99
526.753
496.745
2407.73
2640.97
5953.62
5390.44
7234.46
6589.09
3333.42
3382.99
3279.56
3342.61
330.845
1002.77
3872
2000.59
1030.11
1148.21
2199.98
4126.51
3329.77
1215.17
1294.7
1518.7
3506.34
504.574
3213.65
3120.02
2202.68
2019.31
2613.27
2278.7
1846.16
1798.86
1976.02
1873.1
10138.3
14723.8
13519.1
7723.65
3173.84
9340.8
10647.9
10602.6
13060.4
12790.7
12054
2881.1
2779.6
3302.76
13879.4
5156.66
12887.9
8087.75
7994.07
8325.23
2309.04
2170.89
2458.59
2933.04
5022.59
4803.15
2324.76
2464.24
2335.17
4421.81
5633.56
5214.05
7775.58
7667.14
8037.1
21909.3
22687.7
23007.5
37217.6
34594.5
37961
34823.2
32608.7
28130.6
4259.17
11884.7
14918.9
32179.4
30032
32895.5
1394.14
1692.68
1606.58
2576
2779.48
2557.93
27867.1
26679.2
26485.6
2956.45
2968.4
2406.68
2108.42
1641.33
1036.97
136.877
334.631
2329.46
2414.08
2352.71
2769.63
2401.52
709.754
378.356
29345.7
30447.7
25645.8
10145.4
9980.15
9506.62
11354.2
10003.1
9286.67
10582.9
10637.5
9763.88
3776.4
3212.43
3037.01
1284
7188.74
8145.98
8233.83
1704.28
1064.58
947.036
635.833
559.81
956.835
1522.25
366.642
741.882
11585.4
11686.2
13152.3
1872.57
1527.82
1566.72
1322.84
784.196
1609.69
1657.81
1901.52
4623.61
1189.8
4520.47
4247.28
4160.59
4798.83
9545.41
3325.73
8598.18
3993.74
7729.29
7440.57
6873.78
2600.71
2431.06
2604.91
19768.8
21604
20284.7
506.254
997.425
404.713
871.716
12568.7
13977.9
4674.31
827.636
1357.02
811
10474.9
8379.27
8150.22
17980.5
17125
22170.5
1988.75
2024.37
1885.62
483.62
344.969
1592.07
1783.72
1860.19
13895.8
14578
15997.2
11736
13076.5
12706.7
242.567
2092.96
294.84
663.159
804.314
415.473
501.19
622.238
472.232
7807.35
9569.98
10225.5
499.523
418.176
2633.49
2649.98
2362.61
719.41
8141.32
7937.53
7863.84
17703.3
18364.7
18839.8
17123.6
17926.4
17017
4529.54
5163.01
5720.93
4096.29
4216.95
4127.33
13999.4
9410.73
9357.33
11138.5
9706.75
12609.5
9303.41
9349.49
11074.5
934.123
4378.12
4273.95
4145.05
2334.48
2318.74
2875.03
1001.65
8729.52
9507.26
10178.6
8207.37
1895.98
11243
10397.4
9588.65
8994.08
2382.78
2812.44
10004.3
2627.1
9889.05
10538.4
8922.71
2351.92
2207.49
2936.8
2982.84
29717.9
23447.4
24094.9
12802.5
12584.3
13373.8
12361.8
12775.6
12131.4
1642.82
5438.13
6590.71
5817.4
7460.46
8110.76
8327.95
6584.35
7665.66
5998.94
2481.63
3018.8
2329.69
2276.12
172.605
206.69
257.466
4078.36
2901.42
2522.21
12879.9
5079.85
14007.8
15434.5
13409.3
13110.6
14091.5
13757.9
16056.3
602.641
590.929
496.275
478.992
8299.45
7976.46
7920.12
3591.55
4443.01
4593.15
296.581
19057.2
18493.1
15034.2
5000.82
5366.36
4176.38
5475.72
5682.62
2114.3
17847.3
17905.7
19945.5
16936.5
14718.4
14421.1
15188.8
14935.4
16870.9
349.927
397.227
431.419
430.78
7968.05
7544.61
7441.92
2577.45
2379.02
2831.87
4393.08
4166.13
4869.77
4715.79
3242.03
3312.39
4923.24
5068.35
4204.95
4241.37
2646.53
3217.82
2825.74
1203.72
8862.21
9450.52
9024.96
5990.44
6739.26
6220.63
8536.34
8514.94
8738.61
8153.19
8274.65
8321.8
4337.71
5434.72
5577.14
965.5
447.147
410.607
3287.94
3243.83
3277.11
810.374
3195.18
2577.77
5413.43
5592.68
4860.43
6973.45
6791.55
7162.47
6022.18
6407.58
6562.78
2185.78
1029.84
1316.01
1341.53
3335.04
3448.15
1197.88
1604.58
6402.25
6766.51
6660.36
746.599
778.785
636.026
571.513
5513.36
6217.57
6012.41
9616.82
4221.29
8491.99
3939.24
3679.93
3986.31
1612.77
1449.6
1479.72
1771.46
1729.41
2256.84
2456.76
2049.57
6780.99
7171.92
7018.88
986.431
1263.84
1627.09
1932.5
7204.45
5916.15
4350.28
2864.47
2898.27
2950.7
2980.08
9795.14
10721.3
10739.5
1847.03
2223.32
3469.6
4181.77
3566.96
4322.41
4141.02
1703.51
5601.51
7045.64
6293.69
530.753
212.678
639.649
614.085
1490.51
1144
1479.87
1232.48
1518.42
1352.06
1598.3
2180.35
2061.66
2759.03
1512.09
9552.66
10408.1
11099.3
2911.31
1881.11
2920.26
3225.72
7446.17
6875.93
5679.25
7271.51
7663.07
8657.31
541.178
555.039
1562.51
1210.49
582.827
2605.72
2284.69
2430.45
315.917
252.871
177.234
146.179
12970.7
11482.5
11052.8
1230.89
1305.01
1778.01
2211.05
1877.65
3020.66
1244.82
943.883
1119.23
2086.94
2216.48
622.111
626.89
1724.31
4074.63
3001.92
970.289
1541.18
8701.18
9973.44
9288.93
5165.91
4931.36
5511.34
4603.09
4292.39
4649.86
1458.44
4696.82
2066.23
2045.5
1609.93
7758.81
2994.39
7591.18
1581.71
1502.28
1656.51
1325.72
1160.28
2239.76
7358.58
7117.77
7646.56
570.562
453.256
5430.38
2419.23
2960.16
3833.63
3796.15
1627.69
1671.33
2252.66
1395.2
7374.83
7319.6
3102.84
2826.31
2322.97
1771.64
10475
9136.32
10549.5
10555.9
9760.14
8858.63
10828
10456.5
11110.6
3661.77
4608.95
4340.54
3731.87
3857.32
2766.04
907.721
556.049
11444.3
10913.4
9954.3
12030.3
11520.4
11487.1
562.614
573.779
1542.64
1102.68
6508.61
7953.24
9531.64
5048.06
623.281
4127.83
9684.07
10668
10312.9
6881.76
4418.85
546.744
8454.2
7284.21
8758.08
4907.13
2101.6
4314.57
4846.53
5232.56
2608.99
7990.14
7173.14
7767.44
6367.65
7169.5
609.207
668.972
2576.19
2637.46
7110.27
6951.06
8088.29
2066.94
2619.5
2843.27
573.229
835.782
439.511
480.152
1220.89
1172.12
1030.55
667.048
1431.79
1053.72
1097.22
1061.29
6156.58
5762.72
5927.56
5361.27
5293.55
5650.15
4511.21
4932.88
4986.27
443.096
2302.13
484.725
943.491
896.631
559.705
594.751
965.337
969.317
1321.64
1292.22
971.569
660.399
706.051
2186.17
2148.3
3468.95
3505.17
7970.95
7960.71
8131.57
465.355
464.501
324.921
462.367
1275.42
1297.25
1111.62
8154.51
7989.97
8090.89
7496.69
7792.34
7976.33
4658.25
4834.87
4309.28
3056.11
4271.63
4354.4
4503.14
17521.8
15967.9
19142.6
3563.12
7269.32
1505.74
2406.75
5538.85
2293.68
10431.6
11179.5
10046.8
5390.88
6686.22
2743.53
4102.32
2024.6
2143.71
1836.84
1928.65
2982.6
2585.2
2464.12
6753.21
6597.11
6525.62
5234.85
6168.27
6561.6
1728.14
1673.11
1588.35
1020.88
1164.92
907.102
1570.2
1726.09
1804.61
1648.11
1671.7
1548.54
2179.43
2994.72
3120.77
3375.16
3255.32
3702.69
2509.87
1667.67
1405.41
2444.09
1091.63
4280.61
3754.66
4163.95
2985.18
3767.15
1516.09
2421.54
1937.01
3854.12
2639.3
2687.92
2488.24
2566.22
3763.94
471.271
2175.58
2049.8
2919.25
3049.14
3181.35
2814.43
1858.81
1897.17
1781.91
1820.67
2748.11
497.407
461.783
54.7545
1153.14
1111.66
1116.9
3189.48
335.452
956.207
402.784
1635.01
1513.69
1200.5
489.049
484.045
409.334
2584.79
3004.84
685.409
698.802
428.202
405.048
4929.13
3379.49
10030.4
2425.46
2668.3
863.089
4775.59
4929.74
5127.02
3109
2399.13
2401.38
2387.16
2394.7
3061.73
631.796
661.926
5792.85
6019.65
4307
3118.34
2398.6
2390.79
2402.97
2402.42
3130.58
3497.23
3343.8
3986.62
2311.49
2300.42
2214.8
2318.72
1226.42
1148.32
1149.29
1684.16
410.455
438.449
367.695
386.274
564.874
361.718
317.766
782.398
431.688
1523.21
1150.57
824.391
1532.3
211.556
555.45
459.581
176.35
445.155
326.367
918.128
682.767
803.494
1445.71
1487.17
1904.08
2013.55
1703.84
1677.87
1455.85
1520.82
1573.4
1164.14
1364.1
1361.39
2712.35
3485.6
3134.93
3454
3519.18
2784.86
1548.31
1554.07
1375.6
1448.13
2385.68
1792.41
1166.07
1208.88
1222.82
1120.59
1425.18
2152.95
2593.77
2434.18
1911.99
941.953
3490.39
2404.26
2211.82
2674.96
2569.37
3713.31
4350.3
4894.73
3468.53
2948.82
2597.55
3959.51
2946.92
1216.38
2101.45
2144.2
426.877
1491.66
1294.32
2505.57
1971.17
1365.7
2632.48
2400.36
3255.96
706.475
642.048
555.285
1350.25
2724.72
1657.18
1764.54
1998.94
1809.91
2928.84
2511.94
2219.5
1180.98
81.7572
92.6772
1970.25
2158.08
2023.51
563.213
502.086
680.028
330.9
384.801
170.441
1649.41
1707.85
793.998
1282.63
907.886
778.195
1537.96
1653.86
1480
2906.9
3339.29
3015.34
2504.39
2933.87
2041.43
1441.5
1476.55
1316.75
1393.94
1957.34
504.125
2417.14
333.009
417.116
746.7
746.378
576.286
703.79
371.517
695.865
948.053
108.863
515.139
889.497
932.519
1028.93
846.67
644.538
463.75
455.391
333.367
451.237
421.114
499.57
1781.36
3734.44
1120.02
9556.78
9135.69
7964.71
527.306
3045.94
2009.64
2045.84
1934.78
1973.13
2997.52
1713.49
7536.08
3109.26
2796.23
2546.04
3021.54
2863.93
1751.78
516.925
499.437
590.591
453.666
1880.69
1144.88
605.754
981.857
434.55
449.313
1163.84
4011.87
4261.58
4356.94
2526.64
2296.16
2305.59
2489.85
932.146
1161.54
1832
1332.04
3286.67
2801.48
3424.59
544.382
3537.4
4441.09
2505.35
2818.05
9313.37
8954.32
7423.96
10584
10068.7
10256.5
546.582
3065.68
3061.32
507.104
10233.1
1765.89
6237.12
1729.01
1567.92
3491.89
2761.96
2440.91
4049.09
3603.12
4089.08
3112.98
2945.67
4711.57
4368.3
4403.35
4608.83
4213.38
4157.18
4365.62
4288.45
4664.58
3061.93
3091.41
4493.95
3000.96
12283.9
4857.26
2992.53
8631.36
7507.8
6314.77
2987.68
1046.88
1058.09
1018.16
1034.19
2985.13
2952.73
1088.43
1111.6
1067.19
1076.42
2964.81
9925.96
10098.3
8271.77
7107.45
8635.74
9364.22
4211.76
2396.09
2384.27
3018.93
1852.55
1810.76
1773.23
1822.88
178.903
423.929
4697.37
4849.25
4260.79
6176.07
5788.07
6087.91
582.6
669.33
514.889
3604.24
3286.94
4158.27
1101.56
721.17
887.095
1026.28
2428.48
2891.81
1489.74
3440.73
832.186
923.512
575.881
549.931
3470.15
3028.11
2964.08
3147.09
3067.72
3465.33
3394.9
2812.12
2692.07
2954.18
2825.41
3384.31
529.1
522.826
1268.69
1238.03
1343.58
1463.66
1588.7
1152.41
1146.88
1216.1
1486.75
2080.11
2228.2
1856.12
1961.35
1542.23
775.116
1100.37
942.507
294.454
239.065
423.106
438.132
2425.46
2487.24
2502.67
374.935
411.938
3219.46
2722.01
2727.61
2701.12
2708.64
3237.55
3130.04
2731.67
2749.63
2731.31
2734.38
3148.69
394.57
417.978
2731.15
2386.49
3697.72
3650.33
4625.59
5086.81
5010.09
5132.13
5146.17
4692.94
4152.52
4692.12
4551.44
4910.04
4812.28
4289.39
4549.34
4516.35
2918.21
3133.74
4615.67
4576.01
4723
4807.53
3216.34
2836.38
4449.31
4608.51
2735.98
2857.65
3583.52
3760.85
3673.83
1510.73
2802.76
2829.64
6803.05
7239.23
7646.54
854.267
872.388
813.642
846.693
816.007
746.974
866.758
857.278
1080.86
1131.99
936.956
902.504
1165.39
1131.79
1321.83
1342.81
3006.85
1496.94
1003.21
2268.59
763.877
4067.62
4072.9
4384.58
3412.9
2357.6
2422.96
2247.06
2301.1
3326.19
5153.11
5208.81
3990.71
4631.44
5010.01
5130.98
778.195
3375.21
3261.33
3198.57
3310.61
3226.06
3083.36
2792.02
3420.74
3401.61
6666.67
6651.79
5963.97
5119.5
5898.35
6105.9
2544.01
1706.42
1744.07
1633.5
1669.82
2477.79
2005.52
400.375
613.285
596.873
636.594
613.128
355.583
1147.75
1252.58
1047.74
3224.66
310.361
233.229
441.625
561.474
501.218
722.749
652.215
538.103
497.629
498.476
982.42
1167.1
1139.87
1207.18
1185.57
998.69
898.178
1063.03
1033.6
1116.45
1089.09
921.246
771.219
321.515
577.774
615.566
816.065
764.146
4437.43
4895.58
4768.14
5297.42
5118.98
4615
4181.26
4659.34
4700.26
4686.22
4648.33
4172.54
3234.03
3025.78
2726.21
4332.26
3870.46
3720.38
1192.82
1561.41
2947.39
2409.14
2387.22
2582.27
2472.37
2971.29
4896.75
5257.25
5316.26
4873.78
5065.65
4632.85
2458.37
1954.37
518.785
2766.37
3783.04
3401.65
2966.25
1694.68
1692.91
2282.79
1980.96
1542.98
2123.27
2580.66
2481.54
3046.35
2370.88
2414.13
2379.06
2364.47
3063.71
3323.4
2550.92
2506.37
2616.22
2904.22
3113.34
1130.14
1216.69
857.919
2871.45
2856.33
4525.84
4072.24
4095.55
4111.48
4074.69
4524.54
4641.02
4241.85
4208.67
4140.99
4198.22
4614.65
2934.13
2904.12
932.193
928.1
2025.14
1725.11
4159.27
3096.76
3366.14
3903.71
4358.09
3872.47
3590.91
1482.09
632.468
553.147
3019.21
2920.77
3075.99
2056.75
2674.95
2835.87
3492.31
3189.66
3167.12
3164
3182.42
3463.94
649.829
615.329
2783.77
923.758
940.87
920.39
914.941
2725.32
2927.83
985.187
1001.57
953.23
970.43
2898.84
499.213
488.782
461.8
482.852
1637.63
1047.72
1101.8
832.974
762.646
538.355
474.587
916.051
1535.92
1532.77
1670.6
1017.71
1323.12
2515.01
1860.14
1577.19
1351.57
3767.92
3662.07
3434.52
3654
819.957
734.249
573.666
906.213
867.134
969.534
550.374
536.032
468.465
751.598
778.425
214.93
313.136
3971.81
2715.83
2813.66
567.538
2733.53
3681.99
3650.24
2763.62
2476.37
2768.47
2769.46
3937.75
163.223
193.667
1869.61
1359.62
1404.62