/*--------------------------------*- C++ -*----------------------------------*\
  =========                 |
  \\      /  F ield         | OpenFOAM: The Open Source CFD Toolbox
   \\    /   O peration     | Website:  https://openfoam.org
    \\  /    A nd           | Version:  dev
     \\/     M anipulation  |
\*---------------------------------------------------------------------------*/
FoamFile
{
    format      ascii;
    class       volScalarField;
    location    "200";
    object      yPlus;
}
// * * * * * * * * * * * * * * * * * * * * * * * * * * * * * * * * * * * * * //

dimensions      [0 0 0 0 0 0 0];

internalField   uniform 0;

boundaryField
{
    inlet
    {
        type            calculated;
        value           uniform 0;
    }
    outlet
    {
        type            calculated;
        value           uniform 0;
    }
    ground
    {
        type            calculated;
        value           nonuniform List<scalar> 
5358
(
44566.6
44567.8
44567.9
44567.9
44568
44568.2
44568.3
44568.5
44568.8
44568.8
44568.8
44568.5
44568.3
44568
44567.7
44567.6
44567.5
44567.4
44567.2
44567.2
44567.6
44567.7
44567.6
44567.7
44567.6
44567.6
44566.4
44566.6
44566.7
44566.6
44566.5
44566.5
44566.5
44565.3
48110.9
48109.5
48109.4
48109.3
48109.1
48109
48108.3
48109
48108.6
48108.3
48107.9
48107.5
48106.7
48106.2
48106.3
48105.9
48105.5
48105.4
48106
48106.1
48106.1
48106.4
48107
48106.6
48107.2
48107.7
48107.1
48108
48107.9
48108.1
48108.3
48108.4
48108.6
48109.8
50579.3
50577.8
50577.7
50577.6
50577.6
50577.3
50577.6
50578.3
50578.1
50578.2
50578.3
50578.5
50578.9
50579.1
50579.1
50578.9
50579.1
50579.1
50578.8
50578.4
50578.2
50578.1
50578.1
50577.2
50577.4
50578.4
50576.9
50577.1
50576.7
50577.1
50577.3
50577.4
50577.3
50579.1
51870.7
51868
51867.5
51867.7
51867.9
51867.5
51868.3
51868.2
51868.1
51868.2
51868.2
51868.8
51868.8
51868.4
51868.5
51868.1
51867.6
51867.6
51867.9
51867.5
51867.9
51868.7
51868.6
51868.6
51868.5
51868.9
51868.1
51868.5
51867
51868.2
51867.7
51867.8
51868.2
51870.9
52384.1
52380.4
52378.4
52378
52377.8
52376.5
52376.5
52374.6
52373.9
52371.9
52369.6
52365.8
52363.3
52361
52359.1
52357.7
52356.5
52357.2
52359.2
52362.6
52364.9
52366.5
52368.4
52370.6
52372.9
52374.4
52375.2
52377.3
52377.6
52379.3
52378.4
52379.1
52381.2
52384.5
52437.4
52433.5
52428.8
52427
52426.6
52423
52419.4
52414.2
52408.8
52401.2
52394
52385.5
52375.3
52365.2
52359.7
52354.9
52352.7
52355.5
52361.7
52368.5
52376.8
52385.5
52392.9
52400.4
52406.6
52412.2
52416.5
52420.8
52424.4
52427.5
52428.1
52429.2
52434.1
52437.8
52230.7
52225.6
52219.1
52214.4
52211.4
52204.5
52196.1
52185.6
52173.5
52158.9
52139.9
52115.9
52093.3
52069.6
52050.6
52040
52037.6
52045
52059.9
52080.4
52099.4
52116.6
52134.2
52149.9
52165.4
52178.2
52188.4
52198.1
52206.3
52212
52215.7
52219.1
52226.3
52229.8
51885
51880.1
51870.6
51861.8
51854.5
51843.6
51828.5
51809.3
51785
51754.6
51720.2
51680.1
51627.4
51573.6
51533.9
51512.8
51511.2
51527.5
51556.7
51594.6
51635.6
51674.4
51709.4
51740.9
51769
51793.4
51814.2
51830.9
51845.4
51855.1
51861.6
51869.1
51878.7
51883.4
51474.3
51468.5
51455.4
51442.6
51429.4
51412.8
51389.5
51358.4
51321.7
51275.1
51210.4
51127.1
51050.6
50981.1
50925.6
50895.3
50893
50914.9
50954.7
51004.5
51056.9
51117.4
51179.3
51236
51284.7
51327.1
51361.2
51389.3
51412.7
51429
51439.6
51452.5
51464.3
51470.5
51041.7
51033.9
51019.3
51000.8
50980.7
50954.9
50923.1
50877.7
50818.4
50744.6
50665.7
50568.4
50457.8
50348.3
50256.4
50206.8
50201.5
50232.2
50295.5
50372.5
50453.1
50534.4
50611.2
50679.2
50749.9
50817.6
50877.6
50921.5
50953.1
50976.6
50994.1
51012.3
51027.1
51034.6
50612.3
50603.1
50586.7
50563.4
50535.8
50499.6
50452.2
50394.5
50326.4
50254.7
50165
50043.8
49890.9
49730.7
49587.4
49490.7
49450
49475.2
49570.9
49687.3
49812.7
49931.3
50039.9
50134.3
50218.1
50293.9
50374.5
50442.6
50490.1
50524.4
50551.4
50574.5
50592.5
50601.4
50201.1
50190.9
50172.4
50145.8
50111
50065.2
50006
49950.9
49887.9
49821.5
49760.3
49792.1
23285
22947.6
22464.1
22120.3
22159.5
22506.8
22751
22938.1
23117.4
23293.8
23448.2
23574.1
23673.6
23751.9
49927.7
49984.4
50043.1
50090.4
50126.3
50154.2
50175.5
50185.8
49815.7
49805.2
49785.3
49756.1
49716
49663.9
49612.9
49561.2
49508.7
49480.8
49571.4
50209.3
22444.5
23833.4
10188.6
9688.91
7470.84
11248.8
21131.8
21169.9
21447.4
21776
22031.3
22230.8
22377.7
22485.8
49562.8
49575.6
49628.9
49684.7
49728.2
49761
49784.7
49796.4
49460.3
49449.6
49428.8
49398.5
49355.5
49309.8
49264.9
49216.6
49178.7
49206.5
49515.2
50964
24428
32132.6
9405.39
6997.87
9455.73
25419
21596.8
21320.9
21724
21970.9
22128.9
22242
49269.7
49219.3
49266.2
49314.9
49363.4
49399.3
49424.6
49437.2
49135.8
49124.4
49104.4
49073.7
49033.5
48994.5
48951
48902.4
48871.3
48923.8
49376.2
51421.8
25341.7
13232.5
23225
11924.4
11852.6
3231.53
12812.1
13946.9
39082.8
24201.6
22100
22156.3
22274.6
49018.6
48911.2
48948.1
48993
49034.7
49071.6
49096.6
49110
48840.5
48829.2
48810.5
48780.8
48746.3
48709.6
48662.6
48608.2
48566
48597.3
49113.2
51707.8
25998.7
8159.5
2209.43
3399.28
6234.39
3870.06
4436.6
5033.18
4867.21
32455.4
25797.9
22500.1
22195.8
22332.8
48781.2
48643.1
48669.7
48710.2
48745.7
48777.2
48800.9
48814.3
48571.9
48561.7
48544.5
48516.7
48486.2
48448.1
48395.6
48331
48262.7
48251.7
48871.7
52166.9
27580.2
7542.03
25395.3
24997.3
21068.7
40654.5
29425
23573.5
22319.4
22361.7
48539.7
48403.2
48422.6
48458.5
48490.7
48513.9
48535
48547.5
48327.4
48317.8
48302.5
48277.4
48248.3
48207.4
48149
48071.4
47970.2
47929.7
48724.3
52575
28290.4
14543.6
15477.4
15701.2
7953.79
32908.3
29032.7
24148.7
22558.7
22371.9
48285.5
48178.3
48197.9
48230.6
48260.1
48279.4
48295.6
48307
48103.2
48093.8
48080.7
48057.2
48027.1
47982.7
47918.4
47826.4
47687.6
47612.9
48487.6
52322.8
28104.6
26485.1
1429.67
3603.1
21646.4
28633.8
16267
27295.6
26781.3
24103.5
22765.7
22369.1
48021.7
47958
47985.6
48019.9
48047.9
48065
48077.9
48088
47894.2
47886.3
47874.6
47850.3
47817.9
47769.6
47697.5
47587.9
47402
47262.8
48082.9
51532.6
27382.1
24698
6538.35
1547.87
1353.75
2437.73
2450.19
23341.6
25444.1
24868.3
22826.2
22341.4
47753.8
47739.8
47780.4
47817.8
47847
47865.9
47877.6
47885.4
47698.1
47690
47677.4
47652.6
47615.9
47562
47479.3
47348.5
47106.8
46872.1
47534.4
50448.3
26372.4
23739.5
15837.8
2162.57
1714.56
6910.07
19643
18133.6
24522.5
25101.2
26124.4
22784.1
22276.1
47487.7
47522.3
47579.2
47620.9
47655
47676.5
47687.5
47695.3
47511.4
47502.6
47489.3
47463.8
47420.6
47358.2
47263.6
47108.9
46807.3
46452.1
46892
49218.3
25362.5
23062.8
14393.9
11581.2
11786.5
12626.3
13030.2
15049.7
19608.2
27098.8
25535
27015.7
22709.1
22183.2
47229.3
47307.5
47382.4
47431.9
47470.6
47494.3
47505.6
47513.4
47330.9
47321.8
47307.4
47280.7
47233
47158.8
47049.9
46872
46514.4
46026.4
46213.3
47956.6
54261.5
49924.1
47367.3
40922
33191
31573.1
25756
38590.9
54487.2
64226.8
62508.9
60833.6
48097
46822.2
46982.2
47106.9
47195.2
47250.7
47292.8
47316.6
47329
47336.8
47155.5
47145.8
47130.2
47101.9
47050.5
46967.1
46841.2
46635.6
46227
45618.5
45562.5
46686.9
53173.9
50369.7
50390.2
48193.8
43526.3
39115.8
37330.2
44927
56343.5
63870.2
61334.2
58483.8
47341
46488.7
46760
46918.8
47016.2
47073
47117
47142.9
47156.2
47163.6
46983.7
46973.4
46957.7
46928.4
46874
46783.8
46644.5
46406.7
45951.8
45237.4
44958.3
45456.7
51781.5
50878.6
52893.5
52688
49875.6
45087.6
42257.1
50782.5
59136.4
63959.5
60691
56682.1
46791.3
46219.6
46552.8
46737.5
46838.2
46898.5
46944.9
46971
46984.4
46992.3
46814.2
46803.8
46787.2
46756.7
46699.4
46603.6
46452.3
46191.1
45691.1
44885.3
44405.3
44324
50239
50628.7
54321.3
55790.6
53431.2
48444.5
45573.7
54552.4
61385.8
63896.1
59958.4
55186.7
46462.2
45995.2
46359.2
46556.9
46660.8
46724.5
46773.6
46800.5
46814
46822.3
46648.5
46637.3
46619.7
46587.5
46526.4
46425.7
46265.7
45984.6
45447.1
44565.4
43909.2
43314.5
48647.8
49602.8
54835.5
57954.3
56187
50967.6
47676.9
56858.2
62958.7
63547.8
59090.8
53934.3
46262.2
45800.4
46175.4
46377.5
46485.3
46551.7
46602.8
46631
46645.5
46654.2
46484.7
46473.5
46454.6
46420.2
46356.6
46251.9
46085.1
45788.1
45223.2
44281.8
43475.3
42437.9
47103.4
48172.9
54961.4
59481.8
57820.7
52050.4
48286.8
58175
63861.4
62979.9
58169.1
52887.7
46125.7
45627.3
45999.8
46201.1
46311.4
46380.2
46433.7
46463.4
46479.1
46487.8
46326.2
46314.4
46294.2
46257.8
46192.4
46085.1
45913.9
45606
45021.1
44037
43104.9
41692.2
45665.9
46760.3
55038.5
60442.1
58664.2
52533.9
48637.6
58857.3
64222
62267.1
57257.9
52011.4
46016.8
45471.9
45833.6
46032.2
46144.1
46214.2
46268.1
46299.7
46317.5
46326
46169
46157
46135.7
46097.8
46031.3
45922.8
45748.5
45436.2
44840.5
43828.8
42795.4
41073.6
44404.7
45660.3
55369.1
61201.3
59287.7
52862
48811.5
59049.1
64259.9
61532.6
56410.9
51278.7
45919.7
45332.9
45678
45869.7
45980.7
46051.4
46105.7
46137.9
46156.4
46165.4
46024.9
46012.7
45990.6
45951.9
45885.3
45777.3
45602.5
45288.8
44686.4
43659.3
42545.9
40569.5
43299.2
44807.1
55517.3
61359.1
59303.2
52767.3
48568.8
58841
63870.7
60682.1
55574.6
50632.4
45828.7
45214.5
45540.4
45725.1
45833.9
45904.2
45957.1
45990.2
46009.3
46018.1
45874.8
45862.8
45840.6
45801.7
45735.7
45629.7
45456.7
45146.7
44548
43519.9
42347.2
40193.1
42407.6
44898.2
56413.8
62313.4
60360.9
53384
49147.7
58792.8
63678.3
60028.6
54878
50092.6
45737.4
45107.1
45410.7
45583
45686.5
45753.9
45805.2
45837.3
45856.4
45864.8
9792.65
9690.98
6569.97
22785.8
17603.8
10525.2
22748.6
9550.77
3548.65
18386.2
1406.66
7654.36
11509.6
2138.51
875.654
1447.41
3684.22
25751.4
5792.56
1160.36
13321.3
2392.12
4096.7
23557.7
16416
2427.46
3881.37
5706.34
9211.29
4288.03
23769.7
4287.39
9176.89
4918.57
6746.06
17033.7
5029.27
8355.82
19464.6
25486.8
8185.81
2683.35
20817.9
45007.5
17269.1
15756
444.623
1094.2
13228.2
1318.47
10200
11640.6
9201.04
20210.9
12391.3
1403.94
17914.3
437.073
1456.59
3898.65
1307.41
5181.9
13307.3
12024.8
1370.92
313.425
2219.9
1732.34
401.199
429.301
6994.71
7101.48
7274.04
7835.7
11381.5
21903
7339.59
452.36
11567.6
4572.05
441.508
13983.4
13380.4
3645.36
6981.58
5877.75
12243.8
16037.3
660.836
7701.58
14161
16342.2
13850.4
5275.93
3773.85
22046.9
10078.8
21652.6
22288.5
9912.89
11315.7
13178
5044.21
21491.2
13819.5
10598.2
21089.5
21234.4
12833.2
19749.1
34615
13752.3
700.72
7369.62
4326.89
2870.62
1130.57
5869.9
9015.7
10577.3
9389.41
2346.46
8230.39
1517.42
24274.5
29772.5
23512.6
21111.6
40593.9
29251.8
13029.8
13147.4
25562.9
11956.2
1090.67
4427.05
11618.3
7937.68
6035.95
2215.3
3530.76
494.549
13198
3805.73
13767.7
9660.97
29184.1
29312.7
35178.8
14465.7
17500.7
26769.4
8248.55
10537.9
3689.02
4199.96
13588.5
53571.6
24305
2745.14
13895.8
16512.2
3989.14
6269.46
4638.49
15560
38019.7
18806.9
17386.4
16059.3
28145.7
7132.61
1688.47
2077.25
11648.8
10877.5
26381.9
2636.35
3243.69
9939.24
3271.42
2570.49
7253.51
9041.18
1812.45
22074.1
8424.69
14058.3
4948.63
28439.2
15378.8
9943.1
8339.46
2673.01
2213.1
3709.44
3563.78
7669.97
20294.9
8299.79
7327.88
4277.26
4369.76
25411.7
1025.29
24695.5
2721.63
1554.81
20176.3
4144.15
3042.88
36118.3
12857.2
4462.83
6044.78
5455.67
4064.11
5562.12
13939.5
1899.1
1931.49
8616.05
7240.64
982.136
3245.54
1821.73
3860.64
2919.72
2542.24
5543.23
12284.2
13727.8
1993.76
4958.44
6100.77
3048.63
10733.7
10321.1
5261.2
12503.6
8975.44
5899.72
10324.7
7115.93
4179.93
1303.36
827.108
21975.7
1037.37
1545.7
7390.15
8932.09
23099.4
7083.15
1368.64
7459.78
22501.8
9644.26
2598.81
655.188
14134.5
2204.57
4938.77
11486.8
1527.03
1205.62
1182.83
3541.41
1144.58
10151.2
140.825
13656.7
1425.54
8921.75
1055.03
4511.63
12833.1
2056.66
3461.18
1863.47
6469.12
19879.3
18951.9
8119.67
5911.4
3064.32
3665.08
3208.19
2948.06
3326.37
1416.81
5968.61
4969.73
7741.45
5471.34
9645.82
2906.52
4091.95
4286.56
2299.64
21492.2
5879.62
4064.69
14218.3
6186.1
5094.11
3513.11
2799.31
7956.23
1936.94
2510.32
1824.27
3294.87
7042.64
1387.51
10311.1
2579.61
1249.7
4988.35
2295.12
20022.1
1931.43
4310.45
3474.26
11536.1
9192.26
11070.8
3243.8
2282.53
26420.3
10385.1
3387.77
8750.07
8628.65
7822.21
6605.34
4367.26
6189.6
6602.4
4623.44
21598.8
21834.1
8562.37
5823.48
5465.34
6302.91
5959.09
5202.43
20483.7
8383.25
10285.2
10088.1
15570.6
4742.08
3330.66
2685.14
4709.06
1760.51
6599.06
8079.34
8227.81
17570.3
16303.8
3177.17
2791.9
10085.2
7617.3
10268.8
21552.2
4787.67
11330
13485.6
14674
2433.08
6794.63
13115.1
6954.43
2147.16
472.08
1723.21
569.492
1103.45
1664.64
495.39
3643.65
11155.4
1265.96
6147.18
4552.65
5274.11
4653.65
435.268
1937.89
450.23
2071.41
626.896
6949.44
9203.52
6052.73
5382.62
637.777
972.508
5658.4
4403.59
2435.07
2096.17
2443.76
2844.29
5438.12
4842.28
2514.11
13813.5
8176.25
5621.26
4274.15
2426.16
5905.49
7020.71
6274.64
4290.89
3341.95
4254.22
22287.1
21617.8
21819
26196.4
20224.9
29899.9
10293.3
10752
13134.7
7091.15
8917.71
7807.11
8948.62
5964.8
5213.36
27251.7
10230.6
3440.83
11868.2
12133.5
12153.6
10470.9
5068.31
2551.32
14380.1
6235.6
5102.09
4615.95
3991.22
1446.1
632.333
1735.62
1787.04
7516.92
17516.7
16431.5
11005.5
12376.6
5578.93
5620.67
14569
14568.7
3320.73
2949.61
3593.15
2510.77
4224.07
3977.82
16894.2
16588.7
19900.8
1157.66
7373.13
8925.54
3621.31
3367.09
3939.29
13096.1
8023.22
2069.91
13811.7
12051.2
14406.6
2352.24
2211.55
9408.63
20811.5
24176.5
4321.49
5554.73
7562.07
816.872
239.445
1475.02
3743.27
3676.8
808.288
3357.18
102.023
1352.94
538.356
518.169
4326.84
9179.48
2729.93
5103.97
5968.47
6915.58
2654.97
1185.61
16437.3
15613.3
14980.1
19694.1
18945.1
17753
16000.8
16283.3
9992.27
544.704
389.896
8612.61
10549.2
4562.59
7606.36
5717.06
3144.25
3018.07
446.079
705.435
14691.9
3499.39
20255.2
3107.72
3147.28
4071.69
1297.16
10886.3
11066
11298.1
1954.23
288.991
1367.41
2383.59
512.333
1634.67
4053.26
2298.79
21805.9
10238.1
27719.4
2378
1741.06
1142.86
3861.08
2311.64
2727.06
9471.99
4837.25
4641.08
3986.51
4797.55
2705.56
1186.3
4400.59
8269.23
1760.31
1441.54
3175.16
3625.85
22270.8
23598.6
20447.5
3437.21
8853.64
1973.01
4136.06
2351.02
1398.22
1576.1
3479.75
1403.06
1637.32
2633.81
2965.27
2665.51
7962.46
6882.89
119.23
8880.77
7769.64
9157.52
4016.66
4284.74
1637.62
18930.3
16758.4
15402
546.259
1447.18
135.076
1086.93
1403.38
1068.11
3045.83
3267.79
5567.18
3237.68
1885.04
1703.64
371.701
2192.84
396.71
2229.01
580.076
349.354
486.528
3380.38
4296.24
3002.15
2956.67
648.36
772.246
2216.87
1913.33
512.67
489.708
6443.14
5646.03
6220.83
7812.77
4851.79
5443.53
219.728
524.544
8170.43
7327.77
6605.08
6881.66
7429.65
8534.5
1718.72
1380.02
7527.81
7422.74
6969.78
7735.96
2339.13
17196.5
7751.51
17309.6
11049.2
11283.5
11225.6
391.552
2559.82
2401.49
9728.26
9561.2
9538.87
9619.51
9651.29
10753.9
5972.72
6527.13
5808.54
17990.4
16771.3
17519.8
1544.06
2100.21
1386.1
1289.67
8081.75
6092.39
5149.95
4212.52
530.766
3827.41
325.295
9732.09
16362.4
9903.5
8466.42
2780.29
4394.36
4714.31
10252.6
4544.43
4677.04
12053.2
19530.2
27826.6
22566.1
20270
26979.5
4073.75
12081.5
5331.43
3724.56
7449.14
8810.37
5826.81
11920.6
12079.7
11780.9
2928.9
2875.17
2946.66
2930.03
8997.25
11756.2
21165
8853.42
10845.8
8887.05
4744.15
8622.94
3012.35
361.831
440.639
3462.27
6258.88
13979
828.176
836.676
4271.92
742.276
877.272
5020.41
402.899
963.494
3297.71
3455.5
3223.44
3362.19
1577.62
1422.44
1406.34
1697.99
618.837
335.129
277.735
217.529
325.01
21695.6
23235
25801.5
3759.52
3008.17
2165.64
2314.26
5666.72
5466.35
2919.11
2990.95
2849.04
2893.85
2337.99
2314.58
3511.21
3410.9
11441
4332.1
4483.14
3810.16
4223.09
11212.5
2796.4
11148
11148.7
10854.8
11077.8
2869.74
2935.06
11154.8
11405.5
10487.3
10778.9
2829.99
2625.75
3175.96
7804.13
7788.83
3320.86
8534.38
8014.21
8192.1
9336.18
9082.75
19378.3
15281.3
10933.3
15288.7
16632.2
7584.56
10074.3
9060.36
9091.21
8427.36
8702.09
9410.79
2477.31
2184.11
4120.55
3997.11
2171.06
8396.45
7810.73
3371.21
3236.9
2911.45
4312.43
12838.9
13879.2
11132.7
11954
4610.71
1193.22
2267.47
6974.46
7990.35
1988.1
5296.3
2192.4
9126.45
8439.4
9640.41
7588
7941.76
8515.22
5579.75
15068.3
14839
11566.5
12734
4937.6
2168.16
2049.08
4925.33
5164.92
4461.44
5849.36
5582.17
5385.6
1259.8
1750.7
335.014
483.017
842.609
3165.03
2882.51
3304.24
397.372
170.554
1766.58
414.432
713.662
574.163
547.411
2776.28
1027.35
1078.51
953.433
1011.04
2688.59
2105.3
815.013
2080.64
2312.4
801.602
582.33
10478
4262.47
4825.01
4223.91
4191.35
10310.4
3085.53
4048.28
1404.62
8940.04
7536.4
7754.67
5804.67
6765.97
8521.59
2947.03
3028.05
10210.9
5093.24
4386.02
652.728
3734.22
1575.81
1606.46
1792.96
5760.65
5746.58
5452.69
5563.6
1895.26
3009.74
3081.53
8001.84
7263.51
6985.25
7722.47
7544.3
8642.39
3688.61
6225.86
3090.51
663.085
5540.49
5420.23
4495.38
4505.35
4537.12
4538.01
4170.3
9257.55
9974.53
7438.28
8444.18
1478.74
3200.19
2015.15
3378.46
3309.29
2607.15
2506.1
2843.41
2687.38
11308.8
11335.8
11680.2
1903.57
305.122
1300.25
2936.57
856.558
8731.57
8003.24
8290.02
9343.34
869.802
1629.78
3827.77
3405.31
821.736
4042.5
2117.4
2668.72
3981.77
2268.87
1765.55
1270.74
7020.4
88.7981
217.264
3051.52
148.394
928.273
3642.58
762.083
3244.74
3331.2
1101.51
1105.44
998.958
1036.79
2656.06
1419.25
2890.27
1169.82
1607.56
1335.83
1688.92
274.946
4803.06
236.834
181.376
5148.16
2083.08
1574.42
8703.56
2662.61
2149.34
5189.39
5006.85
5223.43
3482.93
4101.15
3396.15
2149.25
4081.97
2722.89
2116.77
10136.7
9560.68
2673.18
660.709
4106.12
8328.97
687.935
991.295
992.421
3817.78
2499.14
2851.83
9517.55
2386.27
3561.2
2442.3
7207.96
8547.87
917.326
1453.97
2336.2
7618.61
7170.67
1548.82
1098.66
4084.41
291.418
4347.02
2841.54
10950.7
1363.94
3356.63
3834.87
4492.15
5048.19
11562.9
10726.8
11202.9
11661.5
11352.4
4350.23
3875.32
1955.66
9506.72
10228.2
2707.87
2590.46
4153.9
2829.4
7146.27
6867.74
7746.42
3088.39
2692.65
6465.44
2274.25
2474.44
5113.6
402.236
373.144
392.006
403.3
5795.64
326.288
231.554
5213.98
5766.24
393.957
392.217
360.96
392.833
5730.09
6338.08
387.539
390.761
390.949
387.17
6137.31
10740.4
9678.59
9451.07
9274.32
9483.43
10495.7
5049.71
1410.66
5207.87
4354.89
1889.89
4784.94
8326.42
8277.97
2587.12
2724.29
459.411
618.543
2751.46
136.842
2593.29
2298.29
2320.14
3397.1
2341.68
1701.61
5339.38
5156.2
413.382
1649.15
393.795
1270.23
1642.44
2433.07
2606.27
897.94
3820.64
3164.68
2707.29
1412.48
1125.05
3375.93
5152.45
1226.75
2013.81
1917.16
392.865
2139.96
435.029
509.964
571.039
2162.76
2348.71
2340.27
561.416
647.94
2785.46
2588.06
2561.33
2455.23
860.555
2330.02
873.983
936.3
767.529
853.499
2194.61
481.409
433.69
2593.98
973.284
532.895
1074.48
1035.88
2881.97
559.213
575.501
1846.32
2002.83
5902.11
5375.62
7260.48
6575.36
3135.51
3216.39
3020.68
3103.64
278.525
1167.25
5238.18
2694.37
1401.07
1319.44
2847.08
4697.13
5550.23
1678.35
1678.45
1989.28
5651.24
417.03
2825.82
2618.36
2171.85
1942.52
2573.05
2270.07
1782.83
1771.92
1894.53
1800.99
10128.3
14768.1
13560.2
7731.93
3172.42
9270.15
10576.2
10527.4
11788.2
11406.4
10971.9
2726.64
2622.65
3104.15
13709.9
5105.48
12715.8
8150.94
8110.02
8254.81
2107.3
2018.45
2401.87
2421.09
3278
4183.43
4608.6
5042.1
4936.68
5189.26
5819.42
5518.23
6921.28
6759.33
7385.36
20685.8
21269.7
21652.2
35299.2
33971.9
37269.7
34172.3
32340.3
28297.5
3992.88
11508.7
13944.4
31637.1
29525.9
29831.4
1356.91
1578.26
1569.53
5474.69
4345.76
1811.56
27539.8
25698.2
25082.1
3161.58
2922.47
2345.83
2059.64
1558.32
1050.09
140.793
393.767
2113.78
2183.86
2027.26
2398.19
2086.89
623.938
372.712
20643.5
21424.8
18585.5
10023.8
9840.16
9377.51
10675.3
9379.87
8438.43
10500.8
10543.1
9666.74
3653.97
3084.13
2907.59
1306.14
6607.65
7384.3
7952.68
2068.14
1392.11
1436.19
677.029
596.199
788.073
1542.79
576.172
932.425
11661.5
11675
13147
2359.48
2124.64
2123.87
1340.9
847.961
2121.61
2121.47
2438.74
5053.55
1332.01
5187.72
4795.96
4603.38
3926.51
8973.17
3072.03
7992.33
3842.01
7839.77
7672.01
6844.46
2286.77
2085.91
2187.51
18318.5
20219.5
19132.1
519.521
1014.94
409.018
861.216
14769.7
15234.9
5161.64
1763.8
2504.15
1972.31
9815.08
7996.07
8076.49
17172.5
15850.2
20594.2
1543.39
1602.33
1499.7
395.235
287.851
1225.75
1366.04
1419.85
12924.8
12961.7
13517.6
11566
12347.7
12561.3
205.363
1849.6
289.505
788.582
955.165
578.682
492.482
604.747
457.08
7416.05
8839.28
8522.57
446.139
349.734
3021.94
3173.21
3036.23
716.555
7874.63
7306.6
7101.08
15567.5
16215.6
17282.7
14144.5
15069.4
14641.7
4453.97
5068.92
5580.26
3987.54
4111.17
3935.13
13849.8
9419.79
9367.01
11152.2
9723.23
12479.5
9315.63
9362.89
10992.5
922.651
4402.32
4286.23
4159.41
2333.22
2324.22
2870.67
862.843
8274.08
9111.14
9880.83
7757.97
1914.97
10284
10291.9
9479.54
8874.67
2359.96
2783.39
9851.66
2592.68
9844.22
10471.3
8863.46
2344.13
2199.06
2929.97
2975.26
29389
22953.4
23798.8
12339.3
12241.7
12447.1
12274.4
12784.1
12050.8
1963.13
5301.3
6419.25
5512.8
6951.52
7774.03
7983.34
7653.69
8692.36
7167.71
2763.3
3454.79
2632.85
2750.09
310.277
391.746
251.973
4002.95
2873.69
2505.64
13205.2
5190.2
14195.4
16023.4
13200.7
12686.1
14377.1
13803
17116.5
606.773
585.125
507.033
508.193
8337.68
8054.13
7886.81
3616.6
4144.95
4186.21
346.32
18278.6
18320.6
16507
4944.43
5285.54
4438.24
5545.84
5722.53
2135.86
17111.1
16829.7
18738.6
17000.3
15182.6
14867.7
15379.5
15290.3
16566.1
363.024
393.748
395.109
402.358
7245.29
6622.35
6533.67
1877.98
2113.48
2651.36
4189.55
3980.35
4643.99
4494.28
3060.06
3107.93
4722.49
4859.69
3925.39
3886.36
2296.93
3022.24
2643.97
1089.15
8548.58
9207.85
8852.4
6208.82
7024.66
6401.89
8010.84
7905.85
8195.75
7150.79
7514.32
7660.72
4406.79
5550.32
5730.84
929.052
430.856
385.581
2567.94
2509.49
2725.15
442.771
2164.79
1858.29
4638.8
4807.3
4594.66
5835.63
5593.1
5803.18
5217.48
5397.7
5638.63
1842.74
971.352
1145.86
1207.98
3273.22
3389
1436.17
1664.29
5270.06
5643.42
5881.65
732.636
755.532
571.293
535.1
5510.75
6219.19
6013.91
9658.52
4212.75
8554.14
3947.36
3688.84
4000.14
1422.35
1351.97
1206.71
1565.94
1428.94
1716.64
1896.95
1675.32
6707.95
7057.66
6937.15
912.933
1141.07
1476.99
1526.31
7134.15
5906.65
4436.43
2847.61
2885.59
2916.44
2948.82
9687.73
10620.9
10634.4
1795.81
2160.67
3367.13
4378.71
3604.17
3806.59
4045.8
1759.35
4962.82
6658.12
5385.21
597.728
215.633
632.687
597.123
1036.79
1152.13
1721
956.574
923.892
901.369
1217.91
2786.79
2743.6
3479.87
1100.12
9388.85
10251.8
10910
2873.62
1847.19
2944.48
3233.82
7347.98
6851.91
5548.58
7177.88
7597.58
8523.3
937.61
880.912
1866.54
1300.39
782.142
4333.45
3666.14
3976
319.38
254.488
162.426
147.224
12908.6
11401.7
10941.2
1816.64
1946.99
2163.37
2191.39
1867.49
2993.09
1555.83
1149.17
1585.91
2265.38
2926.53
829.621
943.079
1400.5
3995.03
2855.08
2086.6
2274.04
6962.48
8738.34
7982.49
5275.12
5178.68
6387.89
4508.63
4368.98
4653.03
1291.03
4355.91
3216.12
2824.17
2392.98
7380.69
2965.22
8538.59
1848.49
1896.89
1919.28
2093.36
1611.65
2537.37
6500.08
6335.63
6930.78
532.756
417.481
5030.34
2215.24
2570.92
3344.81
3322.94
1157.14
1047.52
1486.37
1174.78
6373.9
6209.69
2706.82
2456.78
2087.44
1536.62
10174.4
8692.96
10003.4
10110.3
9212.48
8351.7
10646.6
10003.3
10717.2
3581.46
4519.29
4175.24
3603.53
3771.01
2665.45
822.142
494.068
11214.4
10471
9595.19
11465
10998.7
11188.8
539.557
562.486
1465.6
845.399
6886.47
8224
9537.71
5316.36
425.048
3973.16
9147.85
10152.6
9822.96
6462.51
4280.82
520.983
7960.86
6884.89
8162.72
4799.13
2137.64
4367.96
4738.22
5205.3
2626.05
7523.27
6809.87
7363.23
5808.7
6468.09
602.156
654.025
2891.8
3119.29
5865.56
5679.44
6767.17
1891.56
2292.71
2685.22
349.542
496.424
398.405
426.989
1161.98
938.774
875.142
463.652
1282
1246.77
1276.15
858.229
5901.35
5818.4
5685.13
5101.75
4889.97
5050.62
4450.17
4710.37
4891.47
403.005
1985.52
455.289
1000.76
944.885
609.518
643.685
1068.92
1041.58
1230.06
1215.95
950.768
648.97
692.189
2180.09
2150.66
3416.39
3561.21
7724.67
7509.61
8021.7
474.227
483.921
329.912
398.37
2472.59
2353.16
2310.84
6755.07
6534.4
6825.97
6027.09
6267.61
6510.39
4570.97
4753.61
4208.75
2932.45
4116.41
4253.31
4408.87
17398.9
15913.1
19028.3
3558.4
7277.97
1503.1
1943.91
5511.9
3088.7
10718.1
11294.8
9808.99
4937.77
6175.43
2493.46
3735.14
1977.69
2061.05
1681.55
1803.18
2719.28
2399.11
2219.58
6861.13
6674.05
6622.65
5283.25
6225.4
6650.62
1708.07
1608.88
1571.34
1169.15
1303.69
859.796
1770.79
1847.59
1751.85
2043.91
1970.41
1763.09
5332.08
5431.76
5599.36
3219.95
3103.15
3633.1
2431.58
1612.09
1364.17
2374.45
994.558
4090.65
3512.2
3928.96
2731.8
3522.31
1392.06
2143.6
1759.93
3595.34
2480.87
2516.48
2361.5
2426.68
3494.34
330.922
2385.56
2004.55
2028.46
2168.09
2261.01
2304
1659.1
1695.24
1596.2
1626.36
2257.24
440.9
380.064
38.7639
843.691
1305.35
1281.46
3386.67
270.277
966.659
336.555
1595.4
1470.61
1165.85
528.312
523.386
400.057
2460.58
2887.86
596.602
620.032
422.971
401.638
4880.02
3330.41
9992.23
2405.4
2623.67
850.658
4777.82
4934.72
5131.01
3122.72
2406.56
2409.38
2393.46
2401.69
3074.27
634.654
664.197
5593.44
6004.5
4245.25
3126.01
2406.11
2396.95
2411.24
2410.57
3141.57
3432.52
3246.64
3883.07
2288.25
2301.39
2150.91
2266.51
1255.98
1321.15
1356.54
2010.04
375.695
357.573
380.195
382.03
491.251
344.619
267.158
695.315
459.909
1403.05
1533.71
1066.77
1988.53
312.351
735.232
535.435
255.307
704.317
560.411
1656.75
1401.76
1461.03
2105.3
2119.06
2328.3
2439.13
2128.25
2071.38
1749.7
2035.09
2055.7
1556.97
1868.58
1582.66
2661.51
3447.11
3075.61
3489.08
3524.12
2743.48
2015.3
1993.24
2166.9
2132.33
2256.87
1684.12
2259.17
2255.37
1705.02
1927.3
1368.92
2054.81
2475.68
2360.82
1840.99
931.279
3310.66
2253.1
2111.94
2474.08
2390.43
3517.27
4122.25
4657.38
3327
2834.89
2476.58
3643.06
2723.71
1303.02
1830.34
1921.78
478.081
1461.92
1361.44
2388.09
1871.77
1314.49
2454.59
2257.34
3087.56
945.061
660.493
567.596
1390.08
2679.89
1792.9
1900.9
1969.43
1865.2
2841.87
3255.4
2966
2356.9
57.1416
46.4278
1596.02
1758.53
1660.51
415.587
377.093
503.693
240.42
293.522
122.354
743.1
795.083
402.731
628.174
757.865
540.244
1195.42
1271.97
1145.24
3025.76
3430.45
3055.33
2544.26
2984.83
1845.59
1390.65
1414.81
1284.34
1351.65
1791.61
437.453
2105.71
326.041
569.762
821.838
830.492
635.884
768.222
510.139
714.635
1119.89
141.574
630.836
1029.12
1075.15
993.912
821.364
635.514
504.517
498.087
340.229
453.264
379.142
439.852
1766.24
3848.49
896.471
9563.97
9166.44
7978.89
528.48
2504.94
1818.65
1863
1734.51
1775.93
2452.23
1710.23
7524.84
3098.68
2789.29
2539.32
3009.97
2855.28
1673.54
430.078
425.462
671.797
400.821
1842.27
1092.6
603.091
995.2
390.105
412.149
1103.04
4029.36
4277.32
4381.97
2543.43
2308.03
2316.44
2497.91
932.656
1160.69
1842
1334.43
3292.6
2813.19
3442.05
472.553
3467.75
4344.05
2493.74
2773.36
9059.95
8653.36
7212.46
10283.4
9732.2
9983.88
656.13
2717.84
3246.85
623.535
9288.02
1818.11
6285.28
1709.81
1553.71
3451.54
2727.86
2407.61
3998.06
3557.92
4042.4
3103.94
2937.16
4685.22
4350.29
4381.74
4577.29
4186.18
4129.66
4340.58
4260.9
4633.92
3053.61
3083.86
4549.3
3003.37
12421.4
4922.77
2714.41
8440.64
7332.25
6225.4
2918.59
1020.11
1033.73
987.496
1005.03
2902.01
2931.32
1074.45
1102.1
1045.77
1058.26
2931.44
10195.9
10169.6
8506.38
8272.74
9460.23
9936.92
4165.71
2309.11
2420.14
3144.37
1906.71
1736.88
2014.65
1946.36
343.551
796.224
4613.35
4792.32
4201
6117.83
5734.34
6000.28
559.609
660.182
503.951
3546.59
3240.93
4085.24
1081.08
713.669
883.204
1017.15
3890.3
2694
1556.62
4252.67
846.693
949.82
587.622
559.982
3392.76
3045.22
2975.46
3115.28
3042.49
3352.13
3272.98
2870.74
2757
3007
2870.56
3267.46
543.074
547.21
1316.2
1323.48
1394.01
1528.66
1558.04
1306.04
1252.52
1343.28
1532.49
1832.8
2001.2
1711.2
1741.54
1620
935.889
1490.04
1193.8
357.08
355.689
270.546
282.055
2400.12
2543.42
2499.94
355.817
400.449
2941.91
2540.81
2531.18
2564.68
2554.94
2968.7
2854.22
2495.12
2505.74
2516.76
2509.14
2872.44
367.317
398.954
2057.05
2252.18
3531.38
3486.35
4425.78
4897.27
4822.73
4940.34
4956.64
4488.59
3975.87
4511.78
4370.11
4726.34
4633.77
4106.91
4335.6
4306.8
2724.38
2946.26
4397.22
4359.2
4554.81
4620.88
3021.59
2628.32
4209.5
4436.64
2723.09
2845.06
3505.35
3684.2
3611.52
1351.72
2586.86
2619.88
7036.08
7585.59
8031.48
893.786
909.02
765.351
856.177
826.779
753.569
900.238
877.515
1020.89
775.801
1008.67
816.643
897.131
893.215
892.044
888.232
2789.59
1383.54
960.796
2039.34
748.612
3542.81
3583.88
3886.45
3116.58
2236.58
2300.77
2116.91
2176.58
3007.96
5215.27
5292.92
4045.77
4602.37
5027.19
5169.89
878.709
2216.6
2061.85
2391.47
2336.89
2227.16
1695.98
2070.78
2617.63
2257.09
6408.39
6425.3
5780.94
4661.7
5227.31
5572.09
2126.5
1542.88
1568.43
1499.58
1520.41
2086.77
1673.31
404.537
614.808
531.499
710.621
670.267
449.672
1120.44
1096.92
927.723
3266.99
334.506
240.673
520.305
639.296
591.973
802.028
728.675
633.497
566.712
560.076
1047.49
1187.42
1167.17
1235.29
1207.05
1063.73
973.509
1106.82
1084.16
1149.51
1129.3
991.869
749.021
335.531
504.88
538.153
804.495
754.145
4403.34
4857.15
4733.86
5246.38
5074.09
4577.19
4163.63
4640.72
4689.65
4655.93
4623.14
4151.09
3236.71
3027.1
2728.16
4334.54
3871.34
3722.75
1192.65
1560.79
2952.65
2413.68
2392.53
2585.07
2476
2974.98
4891.1
5255.36
5317.21
4866.41
5061.04
4624.78
2442.44
1944.13
519.769
2768.16
3794.57
3409.72
2974.88
1510.82
1566.38
2107.01
1881.5
1464.32
1805.8
2092.32
2120.39
3022.32
2356.52
2370.44
2382.88
2364.39
3052.62
3035.81
2298.21
2454.66
2399.22
2798.25
2990.13
1274.6
1324.43
806.567
2846.76
2838.36
4483.75
4031.34
4049.4
4079.64
4038.68
4487.6
4592.41
4188.58
4155
4092.28
4146.44
4565.83
2907.51
2880.23
889.915
889.707
2048.29
1684.66
4036.66
3042.53
3335.96
4663.46
4775.71
4210.93
4413.95
1546.16
629.979
593.294
3027.82
2919.52
2983.43
1954.55
2696.93
2715.59
3399.02
3068.79
3083.94
3013.96
3036.14
3338.01
632.085
602.07
2562.37
877.223
901.816
862.648
860.307
2476.75
2795.56
955.079
970.718
920.299
938.121
2737.47
223.676
256.264
326.338
261.504
1840.91
1232.98
1282.97
569.599
593.548
398.537
332.095
775.454
1257.93
1880.66
1977.67
1330.44
1691.63
3226.35
2510.97
2152.31
1007.74
3732.81
3622.07
3417.18
3631.65
1176.79
1065.01
964.542
1688.92
1253.63
1498.02
841.573
808.575
837.319
1318.23
1206.23
215.603
316.987
3962.41
2708.61
2798.69
572.592
2744.54
3701.98
3598.79
2758.28
2427.12
2772.43
2752.9
3883.78
163.98