/*--------------------------------*- C++ -*----------------------------------*\
  =========                 |
  \\      /  F ield         | OpenFOAM: The Open Source CFD Toolbox
   \\    /   O peration     | Website:  https://openfoam.org
    \\  /    A nd           | Version:  dev
     \\/     M anipulation  |
\*---------------------------------------------------------------------------*/
FoamFile
{
    format      ascii;
    class       volScalarField;
    location    "500";
    object      yPlus;
}
// * * * * * * * * * * * * * * * * * * * * * * * * * * * * * * * * * * * * * //

dimensions      [0 0 0 0 0 0 0];

internalField   uniform 0;

boundaryField
{
    inlet
    {
        type            calculated;
        value           uniform 0;
    }
    outlet
    {
        type            calculated;
        value           uniform 0;
    }
    ground
    {
        type            calculated;
        value           nonuniform List<scalar> 
5358
(
44566.7
44567.8
44567.9
44568
44568
44568.2
44568.3
44568.5
44568.8
44568.8
44568.8
44568.5
44568.3
44567.9
44567.7
44567.5
44567.4
44567.3
44567.1
44567.1
44567.5
44567.6
44567.5
44567.6
44567.6
44567.7
44566.4
44566.6
44566.7
44566.6
44566.5
44566.5
44566.4
44565.3
48110.9
48109.5
48109.4
48109.2
48109.1
48108.9
48108.3
48108.9
48108.5
48108.2
48107.8
48107.4
48106.6
48106.1
48106.1
48105.7
48105.2
48105.1
48105.7
48105.7
48105.7
48106.1
48106.6
48106.2
48106.9
48107.4
48106.8
48107.7
48107.6
48107.8
48107.9
48108.1
48108.2
48109.4
50579.1
50577.6
50577.5
50577.4
50577.4
50577.1
50577.4
50578.1
50577.9
50577.9
50578.1
50578.2
50578.5
50578.8
50578.7
50578.6
50578.7
50578.6
50578.4
50577.9
50577.7
50577.6
50577.6
50576.7
50576.9
50577.9
50576.3
50576.6
50576.2
50576.5
50576.6
50576.8
50576.7
50578.5
51870.4
51867.7
51867.2
51867.4
51867.6
51867.2
51868
51867.9
51867.8
51867.9
51867.8
51868.4
51868.4
51868
51868
51867.4
51867
51867
51867.3
51866.8
51867
51867.8
51867.9
51867.8
51867.8
51868.1
51867.3
51867.7
51866.2
51867.3
51866.8
51866.9
51867.3
51870
52383.7
52380.1
52378
52377.6
52377.4
52376.1
52376.1
52374.2
52373.4
52371.4
52369.1
52365.3
52362.6
52360.4
52358.8
52357.3
52355.6
52356
52357.8
52361.4
52363.7
52365.1
52367
52369.1
52371.5
52373
52373.8
52375.8
52376.2
52377.9
52376.9
52377.6
52379.6
52382.9
52437.1
52433.2
52428.5
52426.5
52426.2
52422.6
52419
52413.8
52408.4
52400.8
52393.5
52385
52374.9
52364.7
52359.2
52354.1
52351.4
52353.9
52359.6
52366.2
52374.3
52383
52390.5
52397.8
52404
52409.6
52414
52418.3
52422
52425.1
52425.8
52426.9
52431.6
52435.5
52230.5
52225.4
52218.9
52214.1
52211.1
52204.3
52195.9
52185.4
52173.2
52158.6
52139.8
52115.6
52092.7
52069.1
52050.6
52039.6
52035.9
52042.6
52056.4
52076.6
52095.9
52112.4
52129.6
52145.2
52160.8
52173.8
52184.1
52194
52202.4
52208.3
52212.1
52215.5
52222.7
52226.3
51885.1
51880.2
51870.6
51861.8
51854.4
51843.7
51828.7
51809.5
51785.3
51755
51720.3
51680.6
51628.2
51573.8
51534
51512.1
51509.1
51524.4
51551.9
51588.6
51628.8
51667
51701.8
51733.1
51761.4
51786.1
51807.3
51824.5
51839.4
51849.8
51856.4
51863.8
51873.7
51878.5
51474.7
51468.9
51455.8
51443.1
51429.8
51413.3
51390.2
51359.2
51322.6
51276.2
51212.2
51129.8
51052.3
50982.1
50926
50894.7
50890.9
50911.5
50949.3
50997.4
51048.7
51105.6
51165.7
51222.4
51271.9
51315.3
51350.5
51379.7
51404
51421.2
51432.2
51445.1
51457.5
51463.9
51042.6
51034.8
51020.3
51001.8
50981.8
50956
50924.5
50879.6
50820.7
50747.4
50668.6
50572.4
50461.6
50351.1
50257.8
50206.1
50199
50227.2
50288
50362.3
50440.4
50519.1
50594.5
50662.6
50729.9
50799.1
50861.6
50907.2
50940.9
50966
50983.8
51002.6
51018.2
51026.2
50613.7
50604.6
50588.2
50565.1
50537.7
50501.7
50454.8
50397.4
50329.7
50258.9
50170.4
50050.7
49897.6
49735.9
49589.9
49489.6
49445.4
49465.8
49558
49670.5
49792.1
49907.7
50014.6
50110
50194.5
50272.7
50351.6
50423.4
50474
50509.4
50537.7
50562.2
50581.4
50590.9
50203.2
50193
50174.6
50148.3
50113.8
50068.6
50010
49955.1
49892.9
49827.9
49769.1
49802
23295.9
22960.3
22476.7
22128.6
22163
22505.1
22744.2
22924.1
23095.5
23264.9
23415.9
23543.3
23646.6
23729.7
49903.9
49960.1
50020.2
50070.5
50109
50139.2
50162.2
50173.3
49818.5
49808.1
49788.4
49759.6
49719.9
49668.4
49617.8
49566.9
49515.7
49489.6
49581.9
50214.2
22464
23837.1
10204.5
9703.33
7435.04
11229.8
21108.5
21139.4
21405.3
21716.9
21966.2
22172.7
22331.2
22450.5
49536.8
49549.6
49605.7
49660.1
49707.3
49743.3
49769.4
49782
49463.9
49453.3
49432.8
49403
49360.5
49315.3
49271.1
49224.1
49187.9
49217.1
49519.9
50922.9
24420.2
32328.9
9521.37
7109.91
9530.14
25341.3
21784.2
21130.3
21583.8
21873.6
22063.1
22197.2
49241.6
49190.6
49241.6
49292.3
49339.8
49379.4
49407.5
49421.4
49140.3
49129
49109.4
49079.3
49039.5
49001.2
48958.9
48912
48883
48936.3
49362.2
51262.8
25291.3
13559.2
22289.4
12172.1
12574
3378
13103.9
13864.8
37010.8
23715.2
21916.3
22061.3
22217.9
48990.4
48881.5
48922.6
48971.4
49013.3
49050.5
49078.5
49093.3
48846
48834.9
48816.6
48787.5
48753.4
48717.8
48672.5
48620.5
48581.8
48612.8
49069.7
51364.1
26088.4
8311.23
2262.75
3535.19
5274.44
3609.87
3054.28
4971.67
4746.43
33822.6
25952.4
22593.6
22128.9
22268.6
48752.1
48614.7
48645
48689.9
48727.7
48758
48782.7
48797.5
48578.5
48568.4
48551.7
48524.8
48494.8
48458.4
48408.3
48347.5
48285.2
48272
48794.3
51682
27183.7
8121.15
27493.7
27715.2
22458.9
42760.2
30737.9
23013.7
22379.2
22313.2
48500.8
48375
48399.4
48439.7
48475.5
48499.6
48518.4
48531.6
48335
48325.7
48311.1
48286.8
48258.9
48220.2
48165.5
48093.9
48002.4
47956.6
48628.9
52118.2
28117.5
15883.2
14042.3
17234.7
9006.93
35284.9
29384.1
22923.1
22481.1
22367.1
48232.3
48146.4
48175.3
48213.2
48246.9
48268.4
48282.2
48292.6
48111.9
48102.9
48090.7
48068.3
48039.8
47998.7
47939.5
47856.5
47732.5
47652.2
48403.2
51964.9
27956.2
27443.6
1448.28
3787.63
21479.4
31014.6
17593.5
28894.6
25902.2
21416.7
22354.6
22420.7
47955.4
47918.8
47961.9
48002.8
48035.9
48055.1
48065.9
48075.6
47903.9
47896.5
47885.7
47862.9
47832.9
47788.9
47723.7
47626.7
47462.1
47321
48028.4
51277.9
27294.2
25588.8
6019.44
2391.02
1358.98
2306.79
2494.39
25894.4
24600.7
21179
22730.8
22461.1
47674
47691.3
47754.2
47800.2
47835.4
47855
47867
47875.1
47708.6
47701.2
47689.6
47666.7
47632.9
47584.2
47510.2
47395.7
47182.3
46951.5
47518.5
50275.6
26327.9
24464.9
16292.2
1890.76
1730.15
7137.24
20357.4
25831.4
32054.6
25361.7
22355.6
23739.8
22457
47390.5
47464.2
47549.9
47601.9
47640.8
47665.3
47678.1
47686.7
47522.6
47514.5
47502.5
47479
47439.5
47382.5
47298
47162.9
46896.8
46553.1
46917.3
49151.1
25255.1
23704
16305.7
12483.4
14808
13380.8
17422.8
18086.2
26843.8
34544.4
26387.4
24449.9
25081.9
22401.7
47111.5
47241.4
47350.3
47410
47454.6
47482.9
47497.1
47506.3
47342.6
47334.2
47321
47296.6
47253.1
47185.4
47086.1
46929.9
46614.5
46149.8
46276.3
48061.1
53377
51441
48685.4
42494
40104.5
35894.3
33016.5
48847.3
65178.8
73357.4
62965.6
64415
54113.2
47136.2
46863.6
47036.3
47161.8
47226.9
47275.5
47305
47321
47330.6
47167.3
47158.4
47144.2
47118.1
47071.3
46994.7
46880.1
46695.5
46333.8
45760.8
45669.3
46957.2
52092.4
52452.2
52899.6
50798.4
46424.7
41004.6
39021.8
49869.5
62143
69401.7
62689.8
62763.3
53308.9
46825.7
46642.6
46849.4
46980.2
47047.4
47098.9
47130.8
47148.4
47158.1
46995.5
46986
46971.4
46944.8
46894.3
46812.2
46684
46471.4
46064.2
45396.7
45104.6
45865.2
50671.5
52993.9
55589.5
55197.2
50836.9
44359.5
42541.5
51692.3
61322.3
67070.7
63041.8
61606.9
52598.7
46586.5
46433.4
46666.7
46799.4
46872.1
46925
46958.8
46976.6
46987.2
46825.9
46816.3
46800.7
46772.6
46719.2
46631.3
46491.7
46257.1
45807.3
45059.4
44588.5
44851.4
49260.1
52487.3
56565.9
57873.8
53657.2
46309.4
44010.9
53289.7
61344.6
65459.3
62932.8
60434.1
51957.9
46391.2
46234.3
46486.4
46620.4
46697.5
46753
46788.1
46806.2
46817.6
46659.9
46649.6
46633
46602.9
46545.6
46452.6
46304.6
46050.9
45566.4
44753.5
44126.5
43945.2
47929.6
51158.3
56408.4
59499.1
55810.6
48077.9
43812.5
54396.2
61496.8
64163.2
62341.5
59266.4
51384.7
46223.4
46047.6
46309.6
46444.6
46524.5
46582.2
46618.6
46637.8
46650
46496.2
46485.8
46467.8
46435.3
46375.5
46278.1
46123.7
45855.1
45345.2
44482.8
43723.7
43161.8
46718.5
49403.2
55835.1
60393.9
57240.5
49220.7
44361.6
55069.1
61527.8
63041.3
61497.7
58175.2
50873.8
46074.9
45874.1
46138.4
46271.8
46354
46413.9
46451.5
46472
46484.4
46337.7
46326.8
46307.5
46273
46211.2
46111.1
45952.5
45673.7
45146.4
44249.4
43380.6
42501.5
45633.6
47620.9
55278.8
60843
57900.8
49870.5
45009.6
55408.6
61386.3
62027
60570.5
57174.7
50415.3
45940.9
45715.1
45976.5
46106.9
46190
46249.9
46288.9
46311.4
46323.7
46181.1
46169.9
46149.5
46113.4
46050.7
45949.2
45787.9
45505.2
44969.3
44051
43094.5
41962.7
44697.7
46118.5
55051.8
61213.6
58369.3
50364.1
45453.9
55546.6
61216
61170.9
59675.5
56280.6
50005.1
45820
45570.8
45822.7
45947.3
46030.2
46089.7
46128.8
46151.8
46164.6
46037.2
46025.9
46004.8
45967.8
45904.8
45803.8
45642
45358.2
44819.9
43888.5
42863.1
41529.3
43873
44849.5
54760.7
61129.3
58326.8
50424.5
45447.9
55418.7
60780.2
60288.5
58741.3
55423.5
49623.1
45714.3
45446.5
45687.1
45804.6
45886.2
45943.6
45982.9
46006.2
46018.8
45888.4
45877.3
45856.1
45819.1
45756.8
45657.7
45498.1
45217.9
44685.6
43754.6
42678.9
41192.7
43213.2
44318.1
55278.3
61811.1
59198.3
51046.9
46189.7
55527.5
60673.4
59706.4
58028.9
54717.9
49283.1
45615
45332.5
45556
45662.8
45740.4
45794.9
45832.5
45855.4
45867.6
9796.96
9802.81
6545.7
23237.2
16897.6
11158
23445.8
9638.44
3651.4
16993.3
1423.61
7887.65
12209.3
1837.45
1131.35
1481.88
2685.61
26445.3
5951.34
951.834
13281
1825.07
4152.61
22860.9
13859.8
1891.34
3725.93
4775.92
9538.81
3379.23
26788.6
4728.9
9813.73
3469.1
7439.87
19140.6
3226.93
8854.84
20679.9
28492.9
8342.01
3028.46
22046
47415.4
18785.4
16228.8
610.834
1102.86
12691.3
1403.67
9985.51
11080.9
9583.78
21441.2
12683.6
1844.55
19630.6
605.865
3158.8
3643.24
1739.61
5241.58
15141.8
12292.1
1440.74
305.807
1952.75
1610.58
256.056
416.986
7221.43
6993.36
8437.42
8215.46
12979.9
32083.3
9065.13
460.385
15041.3
5700.53
496.006
14652.2
16167.4
3847.84
8684.27
5657.83
12087.8
16486.4
672.341
8139.21
14342.6
18148.4
16190.9
5391.47
3955.68
22053.8
10071
21667.8
22289.6
9904.36
11302
13151.9
5051.9
21463.4
13964.9
10642.5
21062.4
21172.9
12944.9
19972.8
34996.6
13906.6
717.417
7680.95
4307.23
2880.48
1317.5
5944.23
9355.59
11158.8
9495.91
2381.43
8269.55
1517.23
25187.3
29937.6
24217.1
20938.8
39562
29237.5
13152.7
14089.2
25724.6
12114.1
1309.12
4485.35
12157.3
8343.47
4798.64
1917.65
2965.83
421.662
13396.9
3954.91
13532.5
7890.55
28009.3
27269.5
31798.2
14750.5
16592.8
26583.1
8185.45
10168.2
2920.3
3744.09
12539.5
58556.2
25541.3
4242.81
17100
18336.2
4630.15
5951.07
5513.46
14573.6
41464.3
20165.4
16920.4
16780.1
27763.3
7924.51
2306.98
2395.09
12136.6
11426
28868.5
2787.44
3464.65
10820.9
3478.57
2795.96
7418.5
9257.16
1966.46
23100.6
8822.38
12216.2
4917.94
29478.5
14416.2
9860.65
8177.74
2800.24
2243.45
3607.48
3822.65
8625.27
22415.7
8841.28
8275.51
4264.27
4391.3
26364.9
1042.25
24398.9
3274.93
2931.36
22413
4190.48
3421.34
38363.7
13276.7
4599.81
7369.33
6172.86
5301.23
5302.77
13080.7
2164.36
1573.7
7982.33
6763.41
939.369
3376.43
1833.64
3832.37
2911.66
2667.25
5366.61
13984.8
15984.5
2669.28
5365.33
8111.66
2701.7
10783.5
10321.8
5264.53
12501.7
8931.84
5854.32
10296.5
7038.49
4164.62
1505.29
854.301
22258.9
1273.25
1859.56
7432.75
8886.07
24218.9
7131.24
1541.35
7488.2
23410.4
9747.5
2655.19
624.208
13647.2
2149.13
5685.55
12114.8
1243.34
1220.95
1669.34
2836.12
1597.61
10533.9
129.536
13892
1498.91
9289.7
813.564
4169.76
12987.4
2028.81
3597.23
1826.3
5969.41
16188.1
14806.1
6382.47
5322.49
2139.61
3139.43
4561.79
2040.94
2552.19
1921.81
5800.78
4351.96
7488.65
3745.24
13802.3
4121.44
4260.19
7204.12
1728.78
24036.8
8127.81
4400.36
14885
5679.41
4565.53
3796.57
1896.1
7682.71
2266.6
1583.4
1977.66
3134.52
7841.31
1501.19
10956.1
2941.6
2204.16
5830.94
2532.96
21602.6
2208.01
5079.64
3708.73
12008.9
9689.55
11486.3
3350.82
2362.24
29198.5
10654
3598.37
9436.14
8627.44
8247.94
7154.58
5319.46
6373.19
6471.4
5257.56
22813.3
22948.2
9115.56
6062.2
5746.35
6495.17
6179.86
5509.27
21855.7
8954.87
9921.77
9982.93
15173.6
4861.66
3333.71
2689.37
4823.22
1417.74
6764.34
8572.12
8004.42
16566.7
15997.6
3400.15
2967.56
9579.81
7143.82
10066.6
23130.2
5325.83
11725.5
13544.9
15013.1
2513.13
7691.68
14759
7971.06
2308.24
812.628
2844.96
986.014
1131.28
2577.54
571.905
3383.76
12222.6
1201.1
6523.94
4150.32
5771.3
4679.03
436.842
2186.76
449.506
1756.64
584.06
6362.86
8447.67
6043.12
5818.58
594.279
932.415
5840.4
5863.53
2537.73
2093.38
2388.13
2765.44
6645.51
6279.84
2692.23
13729.3
8163.75
4706.48
4741.18
1990.14
4778.32
8227.28
7701.67
4387.96
3480.34
4364.12
22298.8
21634.7
21837.4
26154.5
20402.6
29924
10311
10715.1
12996.3
7075.29
9060.01
7941.11
9080.75
6103.84
5814.08
26752.5
10080.5
3399.66
12212.2
12379.4
12312.3
11241.5
5400.54
2824.95
14259.1
6126.49
5048.56
4641.36
3793.78
1459.92
663.352
1588.22
1550.99
6807.3
17513.2
16348.5
8756.53
9777.11
4519.75
5928.6
15974.3
15520.8
3488.42
3102.99
3659.83
2584.47
4468.05
4327.6
17910.1
16379.4
18802.1
1198.94
8323.28
9953.24
3869.43
3655.79
4104.38
12555.9
7020.94
3292.68
15082.3
12414.5
15563.5
2876.92
2676.18
9629.18
22127.5
24975.6
4268.49
4578.98
5274.07
1019.66
329.932
2214.88
3515.16
3371.71
814.318
3215.47
101.705
1386.48
448.504
449.127
4360.03
9883.6
2658.44
6487.51
6496.77
7128.53
2952.18
1165.24
16444.1
15283.2
17352.6
22661.3
22753.7
19199.9
15873
16182.6
9994.26
551.581
387.649
8605.19
10595.6
4564.92
7591.01
5705.83
3130.48
3007.62
442.643
703.977
15452.6
3720.35
20147
3103.19
3134.63
4156.07
1272.11
11806.9
11916.6
12023
1722.53
423.352
1686.42
1774.65
680.506
1227.49
2928.65
2098.01
19906.5
9157.37
27126.3
2022.28
1476.26
837.713
3503.29
2363.16
2749.7
9653.19
2794.79
3801.88
3731.12
3865.17
2852.45
1279.9
3626.82
8825.68
1860.57
1475.7
3356.3
3824.09
23307.4
24528.2
21301.7
3557.95
9330.58
2053.22
4519.99
2490.27
1455.89
1646.2
3696.19
1538.23
1623.19
2724.89
3129.11
2812.13
7995.32
6930.09
160.017
9654.37
8267.11
9292.76
5275.93
5601.94
2051.79
21052.7
18931.9
17197.9
778.627
3254.59
261.599
1082.1
1902.12
1390.81
4000.74
4578.18
5658.4
3104.92
2079.17
1801.03
391.241
2388.71
384.645
1958.17
329.992
219.534
431.005
2926.36
3921.62
2349.65
2365.9
537.27
741.872
2275.84
1928.37
446.989
433.564
6345.93
5656.06
6495.83
7601.94
4793.09
5224.25
176.515
413.846
8584.77
7888.95
7464.34
7231.37
7740.77
8695.24
1960.06
1948.05
6504.56
6604.3
6401.08
8117.92
4192.27
17072.1
7775.17
17308.7
11255.9
9923.03
10929.7
403.888
3080.42
2936.74
9724.96
9566.7
9541.87
9621.86
9653.09
10739.3
5968.95
6508.52
5806.01
18449.7
17058.6
17640.7
1602.85
2111.33
1393.14
1331.76
8287.37
6204.3
5249.66
4189.57
558.489
3810.4
369.313
9874.85
16756.3
10124.2
8786.78
2810.11
4437.74
4741.37
10288.8
4575.81
4705.66
12691.2
20223.9
28384.8
22673.4
20162.6
26734.8
3951.44
12099.6
4461.65
3611.39
7398.02
8695.06
5718.41
12365.5
12419.2
12230.7
2977.16
2959.68
2954.74
2967.36
8295.53
12322.2
21937.1
8154.2
11155.2
7842.35
4965.9
8034.38
2960.05
291.868
371.227
3558.43
6380.47
14216.3
846.568
868.072
4389.54
758.53
843.299
4811.4
396.324
930.551
3465.38
3544.23
3332.82
3493.24
1454.03
1219.05
1396.31
1547.11
613.788
404.603
117.392
285.132
421.48
21872.3
23742.1
27233.5
5984.09
5590.58
3446.68
2481.96
6824.27
6910.7
3202.57
3271.84
3134.55
3180.05
2963.3
2405.09
3700.05
3584.82
11948.8
4545.9
4727.49
3993.23
4427.17
11708.6
2999.84
11900.3
11832.1
11654.4
11858.5
3078.6
3116.81
11764.8
11978.8
11265.9
11479.8
2994.72
2653.21
3221.48
7814.9
7948.59
3356.4
8803.76
8227.61
8339.32
9839.07
9589.64
18578.3
14484.6
9473.61
14771.8
16053.1
7478.18
9958.47
8670.59
8715.3
7942.07
8245.07
9209.66
2769.8
2508.44
4534.83
4818.28
2403.29
9347.72
8731.11
3714.54
3533.56
3268.36
4336.24
12465.6
13413.6
11149.4
11738.9
4654.8
1228.4
2998.99
6440.21
7268.95
3465.01
6216.57
2911.75
8945.75
9148.59
10734.6
7884.67
8600.21
8518.44
5838.33
15844.5
15475
12994.7
13881.2
5421.75
2607.37
2400.29
4345.72
4512.24
4790.21
5682.09
5173.09
4872.09
1489.19
1961.27
417.674
381.586
851.643
2956.37
2745.61
3204.73
361.051
164.719
1676.86
359.361
617.223
449.61
445.251
2820.91
896.524
893.096
853.989
890.765
2773.89
1922.42
751.085
2790.45
2825.74
814.771
590.491
10515.6
4296.96
4872.63
4236.34
4221.06
10333.5
3081.96
4044.06
1407.83
8891.7
7480.46
7701.51
5797.93
6718.37
8452.88
2940.54
3024.37
10160.6
5098.3
4397.87
652.33
3719.78
1747.03
1755.54
1646.33
6233.72
6185.03
5768.4
6014.44
1981.55
3045.14
3083.36
7992.98
7251.2
7010.54
7676.34
7508.76
8606.3
4078.09
6479.6
3163.48
618.19
5452.53
5458.55
4536.34
4538.19
4581.29
4580.47
4252.42
8438.21
9559.12
5847.05
7004.64
1436.6
3312.36
2093.97
3532.11
3481.58
2800.97
2730.13
2941.58
2857.02
12005.8
12055.6
12253.8
1696
449.436
1703.24
2223.1
1136.91
9001.67
8300.08
8456.64
9592.12
815.238
1558.32
3197.49
2584.76
645.184
4069.61
2091.54
2747.98
4021.21
2175.8
1799.92
843.004
5811.01
72.8362
264.497
2194.18
113.762
686.165
3106.4
501.164
2458.41
3266.93
1011.71
1183.16
751.914
816.433
1937.08
1203.27
2216.73
961.846
1299.17
932.78
1641.66
247.188
4882.13
138.504
156.788
4607.94
1585.67
1388.14
8612.43
2665.75
2098.18
3808.65
3859.42
3041.64
4064.3
5038.25
5314.31
3118.84
6033.87
4268.27
1785.66
11224
10814.8
3971.64
793.376
4400.09
6477.32
576.056
1045.66
1030.09
3446.88
2741.43
3128.14
10203.4
2551.71
3738.91
2825.06
7812.22
9341.6
986.46
1596.01
2745.9
8346.82
7889.04
1791.51
1267.81
4392.5
330.8
4594.48
3023.32
11442.2
1432.64
3537.17
4008.35
4627.27
5022.41
12199.3
11410
11784.3
12161.2
11566
4363.83
3906.95
2054.07
10082.2
10894.7
2642.88
2622.11
4116.4
2712.39
7698.05
7657.92
8378.52
3124.8
2901.6
7239.49
2354.59
2504.58
5612.44
381.977
382.004
387.286
387.824
6036.7
399.993
319.721
5140.53
6019.61
403.257
398.832
375.467
401.79
6003.02
6534.83
388.033
388.116
396.486
388.673
6344.69
10526.2
9374.69
9247.91
8922.7
9114.44
10400.3
5176.55
1383.31
5332.87
4446.84
1860.7
4893.76
7859.3
8066.2
2695.44
3074.9
564.665
805.133
3006.76
167.983
2676.19
2477.83
2695.53
3744.48
2696.86
2085.99
5930.25
6148.99
610.887
3108.58
691.909
1316.06
2305.94
2859.93
3471.4
1200.65
4121.63
3934.06
2972.83
1648.26
1299.84
3117.57
4901.03
1166.54
2333.8
2141.72
394.98
2352.47
424.97
376.956
339.74
1874.31
2176.29
2119.75
502.916
560.163
2347.07
2350.98
2620.17
2545.21
827.199
2414.36
772.415
836.083
663.874
749.035
2251.15
426.928
390.365
2482.96
782.105
440.582
880.852
832.779
2838.38
437.016
443.571
2144.14
2002.05
5958.62
5406.04
7245.1
6596.19
3337.71
3393.3
3286.56
3349.35
421.128
1343.03
4611.91
2517.18
1402.52
1370.17
2716.24
4781.09
5073.88
1737.09
1771.77
2002.67
4866.47
645.838
3217.46
3114.93
2205.69
2005.43
2622.89
2289.31
1823.13
1768.22
1959.23
1851.74
10137.7
14691.7
13492.5
7718.36
3171.32
9338.81
10645.2
10599.5
12965.8
12686.7
11999.1
2853.75
2753.56
3279.82
13989.5
5198.93
13024.1
8104.47
8023.84
8328.41
2211.71
2089.36
2479.71
2710.86
4980.11
4746.09
2860.49
3111.11
2526.57
4942.86
6177.91
5930.88
7801.63
7696.93
8066.91
22084.7
22760.6
23125.2
37342.1
34823.9
38205.8
35052.9
32829.8
28150.3
4198.99
11965.1
15076.2
32105.4
29631.3
32661.5
1420.51
1712.37
1610.23
5634.54
3506.46
2612.15
27033.1
25041.3
25819.3
2975.14
2963.53
2398.79
2102.25
1613.3
1028.01
118.309
315.052
1910.1
1964.31
2156.05
2507.85
2196.09
792.454
411.94
31272
31067.6
26537.9
10148.7
9988.52
9507.6
11304.7
9968.03
9221.28
10578.6
10631
9757.75
3752.9
3183.28
3008.82
1304.48
7206.48
8190.44
8252.2
1773.14
1052.71
1017.09
644.727
531.393
1009.59
1677.17
432.872
806.015
11600.9
11701.6
13180.3
1847.82
1683.44
1720.95
1350.63
802.119
1758.67
1787.89
1954.05
4670.78
1180.54
4555.8
5629.4
5661.34
4837.91
9594.24
3376.65
8657.28
3967.75
7751.45
7407.18
6787.01
2513.67
2341.91
2520.54
19860.2
21592.7
20288.7
663.922
1013.55
417.54
895.451
14146.4
14639.7
4884.94
1878.82
2617.26
2058.63
10561.5
8472.23
8239.03
17828.7
17080.9
22199.3
2066.87
2119.44
1932.79
574.654
422.594
1634.4
1849.99
1942.07
13933.9
14605.6
16008.8
12035.7
13184.3
12779.3
223.987
1973.03
279.694
692.33
820.082
371.325
476.467
580.488
438.321
8263.84
10599.1
11394.2
479.824
406.148
2698.65
2680.66
2435.73
739.414
8150.72
7955.3
7886.66
17761.3
18495.4
18969.9
17156.1
17999.2
17078.4
4531.49
5164.1
5720.45
4065.03
4189.03
4091.64
13999.3
9408.56
9355.88
11130.7
9704.18
12612.5
9303.74
9350.84
11073.8
927.803
4377.71
4276.57
4146.37
2333.95
2319.07
2872.41
1008.88
8709.03
9483.13
10138
8155.19
1883.48
11171
10386.9
9577.03
8984.81
2378.39
2807.3
9980.92
2622.38
9890.09
10536.3
8921.94
2351.61
2207.6
2936.05
2982.08
29809.6
23480.4
24113.2
12800.2
12579.6
13359.9
12346.7
12772.9
12134.1
1631.18
5235.23
6330.59
5520.37
7421.43
8086.9
8309.04
6480.24
7609.38
5882.33
2520.94
3002.95
2305.24
2251.85
239.282
369.103
261.282
4146.83
2957.73
2586.96
12869.9
5083.67
14022
15471.8
13406.7
13107.7
14093.4
13757.1
16102.1
608.742
600.169
496.116
477.948
8292.31
7984.49
7911.81
2971.79
3601.76
3595.51
331.784
19245.8
18828.9
14956.1
5609.9
5527.88
4507.05
5969.33
6494.61
2493.87
17895.6
18023.3
20134.4
17036.3
14731.9
14427.2
15219.7
14958.6
16980.1
351.156
396.172
429.283
430.11
8000.2
7578.61
7480.56
2613.12
2354.39
2837
4433.84
4206.08
4974.5
4809.5
3272.56
3307.05
4951.27
5095.5
4259.74
4277.46
2629.68
3226.78
2826.1
1188.1
9073.95
9645.32
9207.59
6099.71
6892.96
6338.73
8588.71
8555.34
8778.13
8160.58
8302.72
8368.38
4403.04
5468.08
5641.63
942.41
448.803
410.445
3224.11
2921.26
3169.96
893.545
3020.36
2802.69
5386.54
5574.76
4853.38
6986.51
6797.39
7159.89
6032.66
6418
6583.68
2121.72
932.547
1108.39
1160.97
3337.04
3431.71
1198.51
1586.78
5525.81
5992.53
5975.19
575.006
600.478
663.704
647.068
5514.06
6216.06
6011.52
9611.24
4222.71
8478.37
3939.32
3679.82
3986.25
1625.03
1456.51
1524.43
1794.16
1760.65
2278.83
2483.11
2059.43
6766.82
7261.16
7024.04
993.343
1252.83
1627.66
1945.54
7175.75
5917.64
4370.05
2862.13
2896.59
2945.29
2975.01
9786.72
10713
10729.7
1838.73
2209.69
3453.33
4147.5
3522.17
4155.86
3969.7
1667.09
5548.77
7114.27
6291.67
544.759
183.578
648.175
625.803
1490.8
1303.16
1461.63
1403.26
1502.19
1315.52
1687.86
2148.45
2023.36
2722.18
1541.39
9725.94
10553.3
11245
2967.89
1929.72
2972.9
3281.81
7654.77
7158.6
5935.03
7469.85
7933.2
8874.37
888.94
937.49
1315.07
735.868
519.422
3211.01
2916.73
3536.54
315.783
253.151
184.064
139.211
13013.3
11514.7
11108.4
1364.12
1452.76
2146.07
2270.08
1930.93
3101.84
1525.4
1048.65
1238.26
2054.56
2160.69
555.937
558.886
1691.01
4095.92
2993.24
1633.68
1544.81
8869.19
10066.7
9481.31
6772.32
6517.72
5732.28
4693.08
5644.8
5652.2
1459.89
4707
2374.37
2266.57
1849.87
7698.65
2975.56
7549.61
2212.34
1968.32
2123.58
1582.7
1278.86
1857.91
7401.85
7162.2
7693.89
569.082
452.008
5445.76
2423.31
2897.62
3764.84
3737.15
1799.93
1793.1
2315.94
1366.48
7214.6
7119.15
3035.55
2762.02
2334.9
1761.4
10743.8
9287.09
10730.8
10647.4
9776.2
8874.97
11002.1
10492
11207
3694.24
4675.56
4402.12
3768
3897.86
2786.83
906.179
555.303
11535.8
10900.8
9945.27
12014
11499
11567.2
569.704
581.444
1497.29
1173.48
6526.57
7935.3
9450.52
5086.26
576.704
3981.36
9718.49
10712.2
10366.3
6893.05
4446.82
542.737
8481.96
7292.93
8764.86
4913.88
2170.49
4426.94
4851.93
5369.02
2693.53
8005.43
7225.28
7833.47
6408.91
7205.98
619.877
680.591
2764.47
2980.56
6913.35
6789.62
7915.35
2125.17
2747.59
2894.22
592.2
897.758
438.292
479.998
1205.05
1061.35
1054.82
718.403
1309.51
960.238
1013.29
958.044
6143.91
5747.46
5894.61
5392.26
5297.05
5658.09
4513.07
4934.31
5027.13
404.599
2221.3
451.811
918.939
872.87
559.53
579.645
943.019
950.4
1184.35
1177.92
913.521
514.502
543.168
2188.2
2153.87
3472.68
3509.06
7974.26
7969.79
8134.51
462.963
461.979
323.755
440.482
2185.12
2145.49
1912.2
8147.42
7968.82
8078.75
7484.55
7773.55
7967.13
4645.54
4830.31
4297.94
3061.7
4239.27
4330.19
4483.92
17499.8
15947.1
19123
3559.58
7263.88
1503.79
2318.54
5468.47
2275.43
10435
11166.4
9889.11
5337.09
6631.91
2724.13
4062.71
2008.41
2126.31
1823.08
1919.41
2954.07
2558.02
2436.93
6765.54
6603.47
6526.4
5244.55
6178.26
6574.56
1757.47
1664.22
1604.72
1027.63
1197.64
989.446
1598.89
1766.11
1781.47
1774.09
1774.83
1590.63
3676.18
3940.96
4610.22
3382.17
3260.81
3715.36
2507.67
1663.4
1405.36
2441.49
1090.85
4347.03
3797.2
4211.56
2993.31
3819.48
1503.36
2388.44
1910.93
3864.66
2656.83
2705.95
2505.11
2583.33
3775.67
491.56
2130.71
2096.47
3045.39
2979.02
3176.92
2811.73
1868.63
1907.93
1789.1
1829.26
2745.32
627.345
698.917
49.5081
901.685
1167.06
1140.83
3210.67
233.913
958.3
397.512
1629.67
1507.83
1194.72
449.599
450.059
388.634
2611.41
3093.97
798.118
804.055
429.105
405.666
4933.61
3382.95
10020.7
2430.15
2672.93
864.777
4770.47
4921.56
5118.74
3108.84
2398.95
2400.99
2387.01
2394.54
3061.61
631.57
661.814
5760.2
6006.11
4302.64
3117.96
2397.66
2389.62
2402.39
2401.66
3130.44
3473.92
3314.54
3959.52
2295.2
2283.87
2197.4
2301.57
1241.78
1082.79
1088.44
1744.46
418.906
443.494
365.647
385.672
515.343
327.461
291.318
862.78
403.22
1689.23
1104.69
773.576
1470.75
189.921
524.588
457.187
158.615
917.657
638.202
1165.46
1032.6
1535.26
1605.09
1644.04
1938.26
2037.59
1812.15
1748.92
1425.76
1593.95
1671.86
1137.87
1368.15
1273.68
2705.84
3483.47
3135.2
3451.88
3515.04
2780.28
1652.06
1671.9
1383.73
1490.42
2388.09
1793.34
1183.86
1200.17
1231.12
1128.04
1431.06
2166.24
2619.19
2436.51
1917.89
942.698
3509.52
2409.26
2239.69
2639.85
2557.8
3723.9
4304.24
4862.36
3448.69
2914.67
2569.58
3963.85
2936.54
1186.9
2016.48
2061.99
418.441
1476.9
1278.03
2512.83
1979.59
1372.42
2649.92
2413.41
3264.95
956.16
656.04
573.62
1386.89
2794.43
1795.74
1896.91
2059.24
1912.79
2988.43
3390.06
3123.13
2497.73
94.3727
108.727
2014.78
2226.63
2160.67
583.938
525.626
711.392
364.415
436.845
194.965
1861.89
1909.93
898.961
1476.83
1032.93
713.806
1585.55
1713.99
1516.97
2915.98
3345.95
3008.98
2509.56
2939.05
2008.58
1432.2
1469
1304.99
1383.16
1923.58
469.384
2274.6
315.22
342.495
656.791
661.374
513.433
623.718
331.029
684.173
1020.39
128.612
506.562
892.055
920.335
960.424
791.103
612.657
443.534
439.126
265.188
353.985
392.36
382.448
1746.48
3790.01
1130.21
9564.14
9145.9
7976.58
544.918
3039.97
2022.49
2059.31
1946.4
1985.3
2992.26
1711.25
7528.38
3104.75
2791.19
2540.76
3016.85
2858.96
1742.06
506.334
486.69
604.72
449.854
1881.8
1134.05
598.416
984.693
424.766
443.415
1153.73
4015.03
4264.73
4356.49
2528.36
2297.88
2304.27
2490.62
934.001
1164.73
1833.93
1333.63
3284.94
2802.81
3427.06
547.022
3528.04
4430.02
2499.76
2810.42
9290.43
8936.25
7431.4
10544.5
10041.5
10227.1
521.649
3053.94
3163.94
509.848
10069.9
1794.33
6276.34
1725.26
1564.98
3487.05
2757.21
2435.92
4042.67
3597.13
4083.53
3112.44
2945.3
4710.79
4368.31
4402.89
4607.16
4211.88
4155.62
4364.58
4286.98
4663.06
3061.32
3091.06
4495.26
3000.44
12252.3
4857.39
2705.76
8414.86
7265.75
6144.89
2977.5
1043.39
1055.08
1014.05
1030.36
2973.46
2948.92
1087.37
1111.28
1064.73
1074.59
2959.2
9894.75
10066
8249.61
7042.2
8611.62
9339.72
4203.73
2369.25
2359.31
3004.24
1829.22
1788.47
1743.15
1794.23
271.706
734.465
4726.4
4881.14
4285.9
6226.16
5830.57
6128.25
586.993
673.092
516.767
3642.61
3332.82
4214.08
1118.62
728.146
913.987
1046.66
2459.15
2916.58
1485.72
3266.8
833.891
925.594
578.072
557.205
3505.39
3039.59
2971.81
3162.91
3079.66
3504.24
3412.71
2806.01
2688.59
2956.87
2827.35
3407.69
529.399
523.306
1289.46
1286.37
1253.41
1419.15
1455.67
1150.25
1146.82
1175.32
1384.04
1988.16
2169.36
1791.22
1848.69
1474.45
836.058
1147.83
961.289
310.242
263.649
410.949
426.26
2684.41
2690.02
2504.24
373.072
412.05
3227.82
2703.22
2710.96
2677.45
2686.71
3245.32
3137.23
2719.6
2739.3
2716.46
2720.89
3156.23
392.854
418.876
2773.93
2352.44
3718.04
3667
4650.09
5126.49
5044.3
5186.04
5194.05
4723.75
4164.39
4716.24
4573
4939.49
4839.92
4302.28
4606.47
4564.62
2924.02
3155.93
4697.16
4645.81
4751.17
4836.71
3210.92
2815.22
4470.77
4631.25
2746.5
2869.05
3568.17
3752.22
3664.52
1497.91
2798.51
2829.55
6930.98
7426.17
7863.47
865.111
879.495
826.849
859.464
826.02
760.602
873.295
863.422
1040.85
1092.87
909.345
867.926
1090.69
1043.54
1248.98
1262.67
2972.19
1492.45
1009.54
2241.78
767.493
3979.57
4005.41
4318.24
3425.79
2374.45
2439.77
2263.64
2317.84
3337.01
5155.16
5218.21
4047.44
4656.68
5006.82
5126.16
792.058
2734.8
2717.36
3120.67
3307.24
3198.52
3330.04
2806.68
2940.5
2793.86
6692.95
6669.65
5976.08
5120.42
5894.8
6106.93
2537.76
1709.95
1749.51
1633.06
1671.27
2469
1945.44
427.7
644.996
643.582
557.707
547.797
380.421
1043.02
1053.63
910.55
3232.02
312.762
235.285
448.177
573.016
514.77
738.61
663.557
549.83
435.615
443.836
899.42
1090.53
1078.59
1092.4
1084.68
897.293
868.87
1043.05
1022.98
1073.21
1058.4
881.841
589.074
252.227
680.368
719.12
817.909
765.836
4440.4
4897.66
4769.98
5300.52
5121.57
4618.28
4182.83
4659.94
4700.21
4687.97
4649.64
4174.49
3233.36
3025.35
2725.95
4329.62
3869.81
3719.13
1193.12
1561.39
2947.59
2408.93
2387.06
2582.04
2472.09
2971.49
4897.8
5256.95
5315.95
4873.68
5065.47
4633.96
2458.72
1950.89
518.955
2767.33
3783.23
3402.02
2966.44
1705.04
1701.62
2297.92
1990.78
1593.68
2126.64
2600.96
2496.14
3043.37
2368.83
2411.68
2377.63
2362.8
3061.89
3329.26
2588.41
2492.43
2613.37
2902.5
3107.87
1137
1220.52
857.613
2867.72
2853.53
4522.33
4068.43
4090.86
4109.06
4071.61
4521.91
4636.01
4235.95
4202.34
4135.74
4192.61
4609.91
2929.92
2900.4
922.298
920.76
2008.75
1705.18
4137.87
3078.47
3347.29
4067.81
4394.8
3658.22
3578.65
1469.6
644.423
567.68
3049.06
2988.12
3131.03
2066.79
2742.86
2845.85
3532.87
3218.64
3190.62
3209.35
3220.45
3509.31
661.001
628.469
2770.27
917.935
934.643
912.509
907.918
2709.85
2916.28
980.364
997.038
947.014
964.958
2887.32
488.753
484.42
461.768
475.903
1645.67
1024.01
1052.1
882.175
816.967
533.331
482.255
915.432
1673.75
1496.87
1636.98
978.936
1284.4
2468.88
1814.73
1529.53
1365.83
3832.21
3724.45
3487.84
3711.48
1141.35
1280.68
1036.59
1715.28
1558.65
1509.92
1000.68
1023.68
578.471
813.913
913.595
209.84
311.277
3965.48
2702.53
2803.9
569.804
2732.14
3678.03
3666.78
2776.68
2491.85