/*--------------------------------*- C++ -*----------------------------------*\
  =========                 |
  \\      /  F ield         | OpenFOAM: The Open Source CFD Toolbox
   \\    /   O peration     | Website:  https://openfoam.org
    \\  /    A nd           | Version:  dev
     \\/     M anipulation  |
\*---------------------------------------------------------------------------*/
FoamFile
{
    format      ascii;
    class       volScalarField;
    location    "300";
    object      yPlus;
}
// * * * * * * * * * * * * * * * * * * * * * * * * * * * * * * * * * * * * * //

dimensions      [0 0 0 0 0 0 0];

internalField   uniform 0;

boundaryField
{
    inlet
    {
        type            calculated;
        value           uniform 0;
    }
    outlet
    {
        type            calculated;
        value           uniform 0;
    }
    ground
    {
        type            calculated;
        value           nonuniform List<scalar> 
5358
(
44566.7
44567.8
44567.9
44568
44568
44568.2
44568.3
44568.5
44568.8
44568.8
44568.8
44568.5
44568.3
44567.9
44567.7
44567.5
44567.4
44567.3
44567.1
44567.1
44567.5
44567.6
44567.5
44567.6
44567.6
44567.7
44566.4
44566.6
44566.7
44566.6
44566.5
44566.5
44566.4
44565.3
48110.9
48109.5
48109.4
48109.2
48109.1
48109
48108.3
48108.9
48108.5
48108.2
48107.8
48107.4
48106.6
48106.1
48106.1
48105.8
48105.2
48105.1
48105.7
48105.8
48105.8
48106.1
48106.7
48106.3
48107
48107.4
48106.8
48107.7
48107.6
48107.8
48108
48108.1
48108.2
48109.4
50579.1
50577.6
50577.6
50577.4
50577.4
50577.1
50577.4
50578.1
50577.9
50577.9
50578.1
50578.3
50578.6
50578.8
50578.8
50578.7
50578.7
50578.7
50578.4
50578
50577.8
50577.7
50577.7
50576.8
50577
50578
50576.4
50576.7
50576.2
50576.6
50576.7
50576.9
50576.8
50578.6
51870.4
51867.7
51867.2
51867.4
51867.6
51867.2
51868
51867.9
51867.8
51867.9
51867.9
51868.4
51868.5
51868.1
51868.1
51867.6
51867.1
51867.1
51867.4
51866.9
51867.1
51867.9
51868
51867.9
51867.9
51868.3
51867.4
51867.8
51866.3
51867.4
51866.9
51867
51867.4
51870.1
52383.7
52380.1
52378
52377.6
52377.4
52376.2
52376.2
52374.2
52373.4
52371.5
52369.2
52365.4
52362.7
52360.5
52358.9
52357.4
52355.7
52356.1
52357.9
52361.5
52363.9
52365.3
52367.2
52369.3
52371.7
52373.1
52374
52376
52376.4
52378
52377.1
52377.8
52379.8
52383.1
52437.2
52433.3
52428.5
52426.6
52426.3
52422.7
52419.1
52413.9
52408.5
52400.9
52393.6
52385.1
52375
52364.8
52359.3
52354.3
52351.5
52354
52359.7
52366.4
52374.5
52383.2
52390.7
52398
52404.3
52409.9
52414.2
52418.6
52422.2
52425.3
52426
52427.1
52431.9
52435.7
52230.7
52225.6
52219
52214.2
52211.3
52204.4
52196
52185.5
52173.4
52158.8
52140
52115.8
52092.8
52069.2
52050.8
52039.7
52036
52042.7
52056.4
52076.6
52096.1
52112.8
52130.1
52145.8
52161.4
52174.2
52184.6
52194.4
52202.8
52208.6
52212.4
52215.8
52223
52226.6
51885.4
51880.4
51870.9
51862
51854.7
51844
51828.9
51809.8
51785.5
51755.2
51720.6
51680.8
51628.5
51574
51534.1
51512.2
51509.1
51524.3
51551.9
51588.8
51629.3
51667.6
51702.5
51733.9
51762.2
51786.9
51808.1
51825.1
51839.9
51850.2
51856.8
51864.2
51874
51878.9
51475.1
51469.3
51456.3
51443.5
51430.2
51413.8
51390.6
51359.6
51323
51276.6
51212.7
51130.2
51052.6
50982.4
50926.1
50894.7
50890.8
50911.4
50949.3
50997.6
51049.1
51106.8
51167.5
51224.2
51273.6
51316.8
51351.7
51380.7
51404.8
51421.9
51432.8
51445.7
51458
51464.4
51043.2
51035.5
51020.9
51002.4
50982.4
50956.6
50925.1
50880.2
50821.3
50748
50669.2
50573
50462.2
50351.5
50258.1
50206.2
50198.9
50227
50287.9
50362.5
50441.3
50520.7
50596.6
50664.8
50732.7
50801.6
50863.6
50908.9
50942.1
50966.9
50984.6
51003.3
51018.8
51026.7
50614.6
50605.4
50589.1
50566
50538.6
50502.6
50455.7
50398.3
50330.6
50259.8
50171.4
50051.8
49898.7
49737
49590.7
49489.8
49445.7
49465.7
49558.3
49671.2
49793.8
49910.7
50018.3
50113.6
50198
50275.7
50354.7
50425.8
50475.7
50510.8
50538.9
50563.1
50582.1
50591.6
50204.3
50194.1
50175.8
50149.5
50115
50069.8
50011.2
49956.3
49894.2
49829.2
49770.7
49804
23296.9
22961.1
22477.5
22128.6
22161
22501.5
22741.2
22922.5
23095.9
23268.2
23420.9
23548.4
23651
23733.1
49907.2
49962.7
50022.8
50072.6
50110.5
50140.3
50163
50174
49819.9
49809.6
49789.9
49761.1
49721.5
49670
49619.4
49568.5
49517.4
49491.6
49584.1
50216.3
22464.6
23834
10204.2
9705.42
7427.73
11223.8
21105.9
21138.3
21407.2
21726.9
21979
22184.5
22340.3
22456.8
49540.6
49552.6
49608.2
49662.6
49709.1
49744.5
49770.3
49782.9
49465.7
49455.2
49434.7
49404.9
49362.5
49317.2
49273
49226.1
49190.1
49219.5
49522.7
50926.2
24410.4
32255.5
9473.91
7058.96
9496.95
25368.3
21950.8
21178.9
21616.8
21897.5
22078.5
22206.5
49246
49194
49244.1
49294.2
49341.7
49380.7
49408.4
49422.2
49142.5
49131.3
49111.7
49081.7
49041.7
49003.4
48961.2
48914.4
48885.5
48939
49368.3
51294.6
25305.2
13455.4
22656.7
12188.6
12458.2
3286.95
12838.8
13822.7
38086.1
23980.4
21975.6
22084.8
22230.9
48995
48884.7
48924.8
48972.9
49014.5
49051.7
49079.4
49094.2
48848.6
48837.6
48819.3
48790.3
48756
48720.4
48675.1
48623.1
48584.2
48615.2
49079.4
51434.7
26062.5
8258.4
2245.37
3210.32
5589.52
3257.03
4460.14
5012.06
5114.21
31509
25497.8
22570
22135.6
22282.3
48757.6
48617.1
48646.5
48690.8
48728.4
48758.6
48783.4
48798.3
48581.6
48571.6
48555
48527.9
48497.8
48461.3
48411.1
48349.9
48286.9
48273.1
48808.6
51792.2
27296.7
8151.52
28180.6
27722.9
21378.7
40305.5
29056.7
23405.1
22392.4
22320.5
48510.9
48377.6
48400.3
48440.2
48475.8
48499.8
48518.8
48532.3
48338.6
48329.4
48314.8
48290.4
48262.2
48223.5
48168.3
48095.9
48002.8
47956.3
48648.5
52244.5
28228.4
15786.1
16055.2
16132.7
8330.13
32404.4
27777.8
23510.8
22695.7
22373.5
48249.9
48151.1
48176.5
48213.7
48247.2
48268.7
48282.6
48293.4
48116
48107.2
48095
48072.4
48043.6
48002.3
47942.4
47858
47731.4
47651.5
48434.7
52129.1
28136.1
27832.6
1500.82
4253.95
22498
29534.4
16812.5
27958.5
25144.9
22468.5
22770.4
22434.5
47981.8
47927.5
47964.4
48004.2
48036.9
48055.8
48066.7
48076.6
47908.6
47901.5
47890.7
47867.8
47837.4
47793
47727
47628
47459.8
47320
48068.3
51450.9
27489.2
26215
5914.14
2231.05
1365.88
2343.47
2562.43
26209.9
24616
22077.9
23140.1
22487
47709.9
47704.9
47758.9
47803.3
47837.6
47856.7
47868.3
47876.6
47713.9
47706.8
47695.3
47672.3
47638.2
47589.3
47514.4
47397.5
47179.5
46950
47559.6
50437.3
26474.5
25098.8
14090.5
1460.82
1824.26
7031.6
19462.4
17676.1
28807.9
25909.1
22947.9
23796.5
22495
47436
47482.7
47557.3
47607.1
47644.8
47667.8
47680.2
47689.1
47528.5
47520.8
47509
47485.7
47446.2
47388.9
47303.7
47166.2
46894.5
46550.8
46952.9
49275.5
25414.8
24393
16858.7
14809.9
15808.1
12996.4
16574.8
16447.1
21034.3
29890.4
27054.1
24361.1
24461
22427.5
47166
47263.6
47357.4
47415.5
47459.3
47486.5
47500.3
47509.7
47348.9
47341.2
47328.3
47304.3
47261.3
47193.7
47093.9
46935.7
46614.6
46146.8
46302.9
48098.7
55447.4
53002.2
47977
39876.8
37854.3
35827.6
30613.8
40296
56514.3
68053.2
62178.7
62549.4
51956.7
47137.7
46908.6
47057.4
47168.8
47233.4
47281.3
47309.9
47325.4
47335.3
47174
47165.9
47152.2
47126.8
47080.8
47004.9
46890.4
46704.3
46337.4
45759.2
45684.1
46896
54101.1
53986.2
52546.3
49041.5
44928.7
40840.8
36785.4
44910.7
56618.5
65126.3
61116.7
60375
50916.5
46782
46677.1
46863
46989.6
47055.2
47105.8
47137.1
47154.1
47163.9
47002.3
46993.7
46980
46954.3
46905.3
46824.4
46697.4
46483.9
46071.4
45397.3
45109.2
45718.2
52425.5
54487.2
55675.3
54251.4
50447.2
45151.7
40890.8
49441.4
57991.7
63772.5
60935
58875.1
50038.4
46494.8
46463.6
46681.8
46810.1
46881.2
46933.8
46966
46983.3
46994.1
46832.5
46824
46809.4
46782.7
46731.2
46645.4
46507.7
46274.2
45818.2
45062.9
44584
44634
50670.5
53793.2
56921
57393.2
53921.3
47789.9
43691.4
52463.6
59574.4
63126.3
60634.7
57541
49317.2
46257.1
46262.5
46502.6
46631.6
46707.5
46763
46796.1
46813.7
46825
46665.9
46656.8
46641.4
46613.1
46558
46467.6
46322.5
46071.5
45582.2
44759.6
44114.6
43674.6
48986
52214.7
56862
59316.9
56563
49894.6
45768.7
54438
60925.7
62686.6
60031.6
56314.5
48736.6
46053.1
46073.6
46325.1
46455.5
46534.8
46592.6
46627
46645.6
46657.6
46501
46492
46475.4
46444.8
46387.5
46293.3
46142.4
45877.9
45365.2
44491.5
43706.4
42853.5
47465.5
50289.5
56343.7
60504.5
58198.5
50999.2
46196.4
55679.2
61835.3
62192.7
59236.1
55224.7
48271.1
45874.3
45897.1
46151.2
46281.6
46363.5
46423.8
46459.5
46479.5
46491.6
46341.1
46331.7
46313.8
46281.3
46222.2
46125.6
45971.1
45697.6
45169.9
44260.9
43360.7
42171.9
46139.6
48432.6
55834.7
61188.6
58994.6
51487.7
46475.5
56367.1
62275.3
61581.5
58363.4
54268.8
47919.2
45716.1
45733.8
45985.5
46114.8
46198.1
46258.7
46296.1
46318
46330
46182.3
46172.7
46153.9
46119.8
46059.8
45962.2
45805.3
45529
44995
44065.6
43075.2
41628.8
45034.1
46955
55654.1
61733.4
59522.5
51778.4
46686
56673.8
62435.9
60947.3
57517.7
53450
47658.6
45576.8
45584.1
45826.9
45952.4
46035.8
46096.6
46134.2
46156.8
46169.3
46036.8
46027.2
46007.7
45972.8
45912.7
45815.7
45658.8
45382.4
44848.4
43907.3
42848.2
41209.4
44094.2
45763.2
55392.7
61744.4
59484
51672.6
46512
56578.6
62081
60121.6
56619.7
52690.7
47448.8
45459.9
45455.1
45687.3
45807.6
45890
45949
45987.1
46010.1
46022.3
45885.1
45875.7
45856.1
45821.2
45761.8
45666.9
45512.5
45240.9
44715.3
43777.4
42671
40917.1
43389.5
45405.2
55959.3
62518.6
60380.7
52174.7
47306
56803.2
62071.6
59569.5
55926.9
52082.6
47273.4
45353.8
45335.5
45550.7
45662.1
45740.7
45797.5
45834.1
45856.8
45868.6
9796.2
9791.98
6545.86
23284.5
17267.7
10995.8
23480.5
9601.89
3578.21
17621.3
1382.75
7833.04
12185.2
1952.79
919.697
1355.09
2750.65
25804.7
5693.45
1172.32
13237.5
1958
4154.51
23193
13954
1983.23
3489.34
5095.65
10016.4
4302.57
26746.6
5836.9
9354.93
5015.37
7398.78
17550.4
5242.49
9152.49
20072.3
28649.7
8255.33
2759.92
21119.7
45059.4
17443.1
16278.2
901.412
1148.86
13666.6
1675.23
9881.89
11826.1
9356.29
20633.7
12029.7
934.395
18570.1
544.39
2770.74
3598.92
851.626
5429.19
13986
11249.2
1417.35
323.19
1644.19
1642.28
383.495
438.977
7083.33
7163.15
6323.82
7842.61
10387.8
21214.9
6791.46
480.919
14434.2
5346.92
498.033
17194.3
16309.8
3724.03
8143.16
6266.55
12129
16234.5
649.448
8184.98
13933
16503.8
14470.3
5393.45
3855.78
22052.8
10072.9
21672
22286.7
9902.03
11304.7
13145
5043.19
21459.8
13909.9
10614.3
21060.7
21180.1
12905.1
19875.8
34963.3
13865.8
729.232
7606.99
4311.41
2887.47
1332.21
5909.91
9192.49
10849.5
9451.09
2369.55
8252.12
1511.44
25355.2
29857.2
23850.8
21007.6
40192.2
29259.3
13117.5
13856.2
25699
12133.6
1213.86
4612.21
12195.3
8135.71
4976.99
2031.67
3116.68
394.827
13201
3789.12
13572
8008.09
28673.5
27986.3
32476.1
14700.8
16938.5
26626.8
8183
12492.1
4229.4
3804.92
12658.1
60172.6
26686
4055.8
15801.4
18716.5
4288.58
4009.79
4651.01
13440.4
39252
19145.4
17249.4
16898.5
27910.2
7911.97
2073.09
2200.76
12403.7
11315.7
29439.6
2854.38
3537.28
10804.2
3514.69
2896.57
7656.47
9534.92
1881.56
22553.8
8697.47
14214.2
5003.25
29492.3
15907.9
10157.5
8593.01
2684.99
2357.63
3143.45
3282.63
8036.43
21316.6
8289.61
7261.69
4334.29
4384.92
26929.6
1028.13
26587.2
3230.85
2530.97
21605.1
4139.85
3423.45
37152.3
13198.5
4498.63
6225.47
5686.36
4706.45
4346.08
12395
2173.62
1572.2
8193.75
7015.12
1014.75
3353.67
1946.89
3856.38
2694.3
2625.86
4326.26
12369.7
13705.3
2507.98
4686.06
7886.28
3085.7
10788.8
10329.3
5267.09
12510.1
8938.07
5853.71
10303.4
7039.37
4168.4
1524.15
869.759
22341.6
1237.31
1877.58
7449.18
8893.32
24234.2
7149.25
1549.48
7511.46
23443.7
9704.42
2633.4
637.588
13961.5
2209.76
5385.6
12151.1
1392.6
1084.2
1078.34
3025.6
1099.22
10125.9
122.747
13558.5
1400.25
8874.57
971.347
4823.97
12843.6
1628.26
3443.28
1538.99
5434.49
16412.9
15924.9
6462.24
4577.21
3906.18
5463.4
4044.06
3391.7
3603
1783.73
6378.22
4589.38
8238.33
5408.42
9385.67
2929.31
4396.72
3911.21
2254.05
24259.1
6491.97
4404.57
12816.7
4177.47
4258.39
3635.39
2234.1
7249.39
2244.32
1847.91
1919.79
3200.55
7816.37
1268.48
10646.4
2700.71
1781.8
5177.05
2401.16
20805.1
2071.86
4563.41
3792.7
12352.1
9443.39
11723.1
3636.65
2436.03
29567.4
10935.8
3635.25
9433.4
8969.91
8144.39
7069.99
4812.56
6394.95
6868.58
4909.21
21893.6
22200.8
8805.31
5903.48
5509.6
6465.51
6049.14
5244.35
20683.6
8415.98
10278.6
10257.4
15949.2
4849.44
3402.86
2785.98
4824.57
1837.56
6811.2
8293.59
8384.63
18059.7
17513
2885.63
2836.94
10159.4
7411.79
10297.4
22220.5
4979.91
10512.7
12914.1
14394.5
2334.37
7064.91
13784.9
7255.68
2021.71
650.293
2417.63
756.048
1115.41
2183.99
785.877
5292.23
11686.2
2240.45
6401.29
5587.99
5460.86
4609.74
473.63
2187.32
485.87
1657.45
578.729
6573.53
8681.22
5827.26
5457.13
585.749
1002.24
6128.46
6097.99
2543.56
2192.65
2001.95
2490.15
6444.89
6034.82
2523.64
13708.1
8196.95
6384.32
4852.51
2413.27
6768.71
6975.24
6390.95
4375.79
3472.27
4341.2
22299.4
21636.2
21838.7
26149.1
20394.8
29920.5
10317.7
10714
12994.4
7072.07
9009.51
7848.61
8995.25
6088.55
5609.77
26975.1
10239.4
3457.33
12233.3
12387.1
12312.7
10725
5180.84
2688.89
14230.4
6110.04
5036.41
5079.32
4328.25
1393.75
578.09
2089.83
1712.11
6923.79
18840.5
17578.3
11098.6
13131.1
5591.16
5368.66
14876.5
14143.4
3482.58
3077.74
3801.83
2634.2
4359.9
4220.73
17464.8
17085.2
20270.9
1154.16
7806.58
9361.15
3607.99
3362.07
4156.32
14698.6
10331.5
2645.69
14227.4
12466.6
15150.7
2437.37
2312.04
9651.94
22515.1
25611.3
3839.37
4569
5451.95
1030.4
355.678
1980.11
3606.14
3481.28
896.546
3275.81
133.406
1416.46
454.42
438.573
4194.77
8646.23
2467.35
5527.89
6346.69
6889.29
2693.87
1139.96
16381.2
16565.4
16271
19018
19297.7
18440.6
15873.1
16184
9992.82
552.201
387.625
8608.23
10598.9
4565.89
7590.87
5708.71
3131.54
3008.1
442.669
704.305
15108.9
3711.71
20298.3
3105.85
3135.99
4095.62
1262.42
11903.3
12008
12046.2
1813.22
314.663
1314.44
1911.48
579.962
1522.94
3964.35
1779.85
20539.5
9298.65
27306.2
1898.59
1611.09
1130
3967.76
2469.36
2883.7
10235
4838.59
4530.53
3884.19
4859.75
2820.84
1240.64
4626.78
9057.24
1900.32
1545.98
3236.28
3736.47
23128.2
24688.3
21221.5
3607.08
9375.52
2096.87
4438.31
2530.74
1418.23
1580.14
3467.85
1755.48
1687.33
2698.02
3013.14
2954.96
8579.07
7730.29
161.833
8907
7565.87
8428.07
4008.38
4351.64
1244.04
19876.9
17546.7
15985
755.753
2824.71
227.363
1075.98
1630.84
662.012
3383.9
3708.82
5840.79
3465.75
1993.11
1784.2
425.461
2354.16
410.765
1696.51
410.844
216.643
434.583
3043.6
4023.61
2402.03
2349.8
574.628
789.309
2466.24
2083.51
438.651
439.41
6415.3
5822.47
6543.2
7739.89
5038.38
5401.61
171.63
390.636
7385.52
6583.58
5588.82
7137.58
7245.07
8057.87
2018.43
2028.54
7428.46
7205.15
6403.42
7956.81
3597.94
17070.3
7727.94
17306.3
10843.5
12021.2
11324.9
396.273
2619.28
2480.96
9726.7
9566.15
9540.87
9620.65
9651.38
10741.8
5962.39
6505.51
5799.33
18302.6
16950.1
17579.8
1614.87
2108.65
1377.77
1320.22
8165.23
6103.38
5200.4
4194.89
566.028
3815.84
369.814
9822.28
16543.2
10043.6
8161.82
2796.87
4419.89
4726.57
10258.7
4561.8
4691.07
12467
20013.9
28044.5
22821.3
20449.6
26892.9
4024.62
12165.4
5816.78
3725.8
7567.86
8942.79
6297.09
12404.5
12439.3
12261.7
2967
2954.06
2945.01
2956.55
8332.66
11817.1
21159.3
8159.12
10737.7
7975.02
4776.74
8057.64
2932.56
306.665
371.939
3488.55
6254.32
13983
829.401
847.838
4274.91
742.268
843.648
4837.45
398.081
930.159
3465.35
3526.04
3333.63
3499.74
1665.11
1234.3
2109.23
2188.12
543.233
559.227
297.402
301.546
549.278
23436.8
25192.5
28363.1
5040.36
5047.18
3518.21
2036.94
5585.76
5587.58
3185.35
3257.41
3100.92
3159.92
2761.74
2581.41
3723.11
3586.29
12112.3
4527.21
4737.69
3939.64
4399.36
11769.2
3038.83
12105.9
12018.7
11855.2
12059.5
3121.01
3157.04
11922.5
12141
11360.9
11592.5
3037.94
2778.67
3356.65
8224.72
8177.75
3484.34
8960.97
8411.7
8654.07
9568.65
9322.31
19499.6
14510.3
10623.6
14839
16281
7739.11
10313.2
9307.59
9298.43
8672.09
8960.13
9614.62
2449.05
2212.49
3966.11
4028.77
2266.52
8820.36
8228.55
3471.06
3236.29
2929.66
4368.78
12417.1
13412.5
11212.2
11721
4666.84
1241.06
2762
7580.8
8777.67
3062.82
6033.88
2606.88
8982.67
8991.7
10373.2
7916.38
8450.98
8515.87
5741.4
15481.5
15219.9
12409.6
13369.8
5268.25
2273.06
2163.58
4058.96
4182.23
4215.41
4706.85
4497.77
4254.29
1505.58
1615.03
421.538
403.686
958.945
3055.17
2838.99
3256.07
423.436
194.302
1831.15
440.317
684.191
458.389
455.98
2648.96
869.989
868.265
830.439
868.322
2707.1
1920.41
597.759
2509.44
2567.41
814.922
591.083
10521.9
4300.43
4875.79
4240.22
4224.64
10340.2
3081.93
4044.31
1408.92
8897.08
7483.04
7705.02
5798.89
6719.2
8456.48
2940.85
3024.34
10167.1
5102.87
4401.92
652.733
3722.39
1765.63
1775.85
1714
6236.79
6207.29
5791.88
6020.33
2013.18
3052.78
3086.94
8004.12
7260.17
7023.84
7680.9
7515.19
8615.09
4112.88
6620.08
3175.85
611.046
5470.76
5492.14
4520.22
4524.09
4563.45
4563.86
4204.26
8751.64
9735.83
6231
7413.22
1440.33
3275.72
2020.9
3498.69
3434.03
2802.57
2728.11
2937.26
2858.7
12039.8
12135.6
12314.5
1776.28
330.995
1234.36
2407.28
958.558
8704.95
7962.28
8233.45
9322.28
909.104
1466.43
4907.16
2970.67
824.14
4064.92
2100.09
2691.35
4008.21
1727.28
1760.82
820.696
5777.43
130.396
280.128
4304.65
197.33
741.462
4838.07
1018.32
4891.26
2923.38
872.109
1118.87
770.88
762.193
2713.47
1201.67
2882.44
1004.55
1607.51
1076.26
1751.16
256.76
5144.58
167.102
161.752
4773.44
1662.31
1995.24
9316.17
2802.64
2226.73
5057.15
4893.96
5183.14
3273.41
3899.94
3558.2
1751.23
4203.81
2039.53
2031.74
11197.8
10605.2
2727.68
693.33
4212.14
6466.75
686.86
1046.02
1022.27
3803.12
2710.42
3093.88
9782
2447.96
3674.03
2875.94
7313.12
8801.15
936.83
1524.09
2565.72
7908.99
7443.14
1661.07
1179.3
4335.88
312.291
4611.7
3053.99
11805.2
1458.3
3565.28
3958.93
4837.19
5402.53
12506.5
11681.4
11922.1
12397.2
11952.5
4452.84
4178.66
2081.39
10115.3
10934.9
2756.24
2644.35
4307.92
2876.86
7563.25
7418.39
8202.54
3247.01
2894.93
6983.73
2451.18
2628.7
5411.41
404.341
370.843
400.928
407.698
6035.2
368.37
234.547
5349.28
5834.16
403.179
402.304
365.691
401.295
5787.14
6469.55
397.951
400.338
401.437
398.286
6244.77
10727.5
9640.84
9410.51
9391.88
9506.4
10529.8
5172.02
1501.73
5311.74
4471.29
1914.84
4910.3
8484.4
8677.71
2782.22
2670.62
560.706
726.809
2783.74
174.266
2651.78
2381.61
2380.08
3302.69
2408.52
1392.48
5370.61
5727.71
550.633
2649.08
612.893
1304.64
1961.52
3109.41
2958.99
642.224
4608.69
4498.88
4563.45
2708.94
1830.45
3706.54
5439.6
1328.45
2130.04
2029.86
426.84
2323.9
455.355
391.276
428.291
1711.36
2119.22
2022.09
498.671
589.519
2303.1
2278.25
2810.93
2766.21
882.372
2455.55
778.25
818.181
724.433
768.247
2314.58
444.059
442.232
2124.38
741.997
420.638
856.557
792.467
2410.98
422.517
454.642
2150.5
2165.06
5914.55
5381.37
7223.31
6565.82
3338.5
3401.03
3275.07
3344.2
363.849
1187.64
5898.48
2789.56
1665.51
1449.29
2932.35
5296.68
5730.88
1773.09
2109.85
2215
6228.2
582.724
2851.91
2669.84
2206.12
1966.29
2598.8
2306
1780.02
1745.29
1913.71
1804.63
10136.9
14691.3
13489.5
7716.83
3170.62
9308.43
10609.8
10563.6
12753
12609.5
12095.9
2771.21
2671.47
3182.42
13731.5
5096.45
12709.7
8093.96
8050.39
8271.08
2217.87
2104.13
2402.02
2374.28
4987.26
4620.65
4653.93
5119.93
4972.38
4529.48
5324.16
5079.41
7777.28
7654.58
8083.14
20934.5
21559.8
21969.9
35021.5
33123.4
36379.2
35269.1
33147.7
28293.4
3987.16
11929.5
15107.5
30174.2
28148
30135.1
1457.53
1749.47
1647.84
6307.39
5257.81
3533.93
26439.6
25434
26343.6
3032.75
3064.14
2461.15
2150.65
1620.78
1064.09
119.202
285.048
1522.05
1647.9
2276.32
2531.8
2266.12
730.068
377.992
21935.6
23891
19454.5
10155.1
9996.32
9489.5
11209.4
9862.22
9038.31
10541.5
10591.5
9719.59
3681.71
3104.6
2922.78
1278.37
7067.14
8037.68
8157.98
1890.15
1224.66
1263.9
622.86
567.403
918.465
1522.08
640.667
927.351
11570.9
11660.7
13120.4
1897.14
1312.82
1386.77
1343.74
801.899
1451.11
1509.26
2005.38
4739.75
1224.3
4763.21
4798.21
4952.8
5923.57
9154.27
3161.19
8191.15
4073.57
7924.12
7816.43
6961.49
2325.18
2144.7
2282.18
18524.5
20391.8
19163.2
1289.71
1057.5
430.368
921.509
15561.8
15593.6
5266.28
2191.49
2814.01
2251.8
10176.2
8185.01
8177.46
17062.9
16092.9
21207.8
1127.33
1187.2
989.76
463.726
237.535
750.696
1017.68
1049.04
13303.1
13448.4
14159.9
11175.4
12422.3
12316
230.176
1944.47
296.493
691.97
821.762
510.524
503.629
619.707
467.162
6958.46
8236.76
7917.04
496.456
418.942
2785.86
2922.32
2528.47
708.634
8207.41
7965.61
7877.46
15784.6
16229.7
17353.4
14673.8
15282.7
15055.3
4543.11
5151.82
5691.22
4022.6
4149.49
4021.48
13939.6
9403.74
9351.42
11120.8
9697.06
12551.4
9299.37
9346.4
11053.5
948.702
4382.34
4281.15
4150.81
2339.12
2322.6
2878.14
1018.84
8615.82
9401.3
10022.5
7795.85
1726.75
10678
10343.6
9532.69
8937.23
2372.01
2799.34
9925.23
2609.4
9863.11
10502.5
8896.43
2345.03
2199.66
2932.21
2977.86
29586.8
23363.1
24112.4
12695.6
12494.5
13081.4
12347
12778.6
12163
1979.27
5420.28
6617.29
5800.9
7178.64
7875.95
8149.06
6627.73
7722.61
6114.7
2589.64
3105.64
2360.95
2380.44
243.173
317.234
243.242
3990.32
2846.35
2472.2
12870.5
5067.49
14024.7
15605.6
13375.9
12994.9
14182.9
13789.3
16381.2
615.728
605.479
504.616
488.98
8258.08
8033.7
7977.18
3906.56
4747.38
4935.37
293.199
20158.7
19985.4
15157
5449.42
5586.03
4375.22
5049.22
5387.46
2084.82
16923.5
17052.8
19069.7
17296.1
14915
14572.5
15406.4
15153.7
17169.5
362.094
404.428
429.119
432.877
8003.9
7518.54
7403.7
2337.62
2152.98
2884.07
4535.79
4295.27
5092.57
4926.85
3333.32
3342.02
5075.29
5206.25
4337.31
4264.76
2551.53
3105.62
2718.13
1125.87
8905.22
9471.58
9059.36
6210.62
7049.5
6448.44
7965.55
7896.39
8199.59
7131.9
7494.99
7594.46
4467.66
5508.84
5710.2
931.224
458.31
418.61
3135.12
3079.57
3255.47
866.556
3245.92
2338.72
5153.57
5343.13
4727.58
6055.03
5765.34
5937.74
5427.88
5596.67
5876.64
2136.21
1015.32
1230.48
1288.27
3337.55
3475.76
1452.3
1671.53
4768.04
5046.87
4820.83
529.572
567.716
660.438
667.579
5517.42
6218.2
6013.21
9618.17
4226.36
8482.28
3943.5
3683.23
3989.52
1649.1
1472.93
1475.3
1762.18
1724.27
2305.72
2501.42
2075.27
6788.94
7382.98
7056.26
1021.4
1229.06
1623.77
1960.58
7202.44
5944.58
4402.83
2856.61
2891.74
2936.22
2966.68
9745.79
10671.6
10687
1818.94
2186.16
3416.76
4268.69
3595.25
4088.05
3888.42
1733.04
5186.82
7154.47
6034.47
528.29
341.294
653.228
629.018
1044.05
1103.96
1597.12
901.362
1367.31
1017.3
1126.95
2319.86
2226.84
2934.32
1127.44
9357.37
10234.6
10900.9
2857.68
1829.66
2912.22
3202.01
7287.41
6795.74
5593.33
7122.97
7527.41
8459.43
630.96
1096.8
1454.11
1051.55
850.479
3961.07
3829.2
4997.63
316.33
253.26
151.473
156.397
12917.5
11432.7
10964.5
906.11
959.982
1666.43
2165.49
1847.62
2974.36
1382.54
718.407
832.762
1796.82
2097.59
654.447
680.652
1693.71
4263.38
3070.55
2050.45
2207.22
7410.14
9760.69
9003.56
5427.99
5212.85
4770.41
5022.61
5112.3
5271.92
1338.57
4489.05
2560.55
2608.46
2275.92
7322.16
2866.28
7282.71
2165.23
2195.86
2207.36
1978.54
1305.02
1483.98
7318.71
7076.78
7660.84
567.533
452.442
5386.48
2397.24
2673.08
3461.05
3461.15
1137.86
1284.36
1895.05
1268.6
6595.78
6394.66
2832.72
2578.74
2225.97
1664.38
11064.1
9420.1
10915.9
10437.2
9478.19
8563.69
11282.6
10392.4
11179.4
4013.22
4977.77
4615.73
3843.44
3986.16
2848.08
917.382
587.764
11809.8
11037.6
10092
12147.7
11620.5
11822.2
570.011
587.721
1558.58
980.041
7116.59
8406.16
9799.46
5486.18
464.083
3947.03
9357.09
10350.8
10030.6
6504.77
4283.39
523.123
7979.99
6910.69
8219.95
4923.33
2175.64
4463.47
4852.61
5426.67
2706.36
7693.57
6980.92
7592.48
6105.93
6804.88
625.911
681.217
2517.04
2904.57
6145.54
5928.08
7082.35
1683.48
1822.4
2224.84
498.215
697.576
444.572
485.831
1186.81
940.575
922.657
646.612
2164.51
1896.27
1930.19
1046.31
6150.38
6177.4
5950.09
5225.95
5070.15
5254.46
4541.72
4851.42
4931.61
440.144
2212.05
486.958
909.589
867.284
560.745
586.947
941.117
936.022
1297.39
1280.64
978.501
479.845
494.555
2178.48
2148.45
3407.68
3554.48
8030.18
8007.3
8184.22
471.28
473.628
324.673
450.671
2517.59
2402.52
2288.75
6750.63
6557.96
6822.82
6120.43
6325.69
6563.48
4624.34
4816.65
4298.11
3062.23
4199.76
4295.72
4455.65
17495.9
15952.5
19132.4
3556.34
7261.19
1501.83
2308.84
5151.38
2410.38
10569
11235.3
10058.8
5235.1
6375.95
2723.62
4021.86
1988.88
2091.77
1788.14
1901.22
2820.34
2465.75
2326.54
6747.23
6573.95
6503.89
5224.02
6147.02
6555.98
1684.66
1626.48
1538.14
1025.4
1159.63
846.568
1950.93
1929.97
2092.42
1770.88
1825.1
1825.32
5379.06
5635.15
5755.12
3369.73
3241.97
3851.38
2587.06
1713.28
1452.42
2502.51
1054.16
4232.57
3688.09
4089.61
2915.4
3714.49
1420.43
2223.72
1797.69
3583.47
2486.4
2533.01
2339.13
2415.34
3485.25
504.798
2127.37
2148.3
2739.02
4330.77
2914.63
2394.63
1662.57
1694.31
1608.63
1634.3
2353.06
548.227
596.303
56.8721
982.718
1195.91
1176.59
3274.51
221.282
1032.97
396.344
1664.49
1546.41
1219.29
448.347
445.28
325.564
2491.97
2873.56
757.976
753.387
429.76
406.196
4936.26
3382.84
10024
2403.91
2673.06
864.88
4769.67
4919.8
5116.1
3109.67
2399.42
2401.64
2387.12
2394.83
3062.21
631.685
662.04
5796.6
6036.29
4291.12
3120.09
2399.2
2391.55
2403.3
2402.87
3132.11
3441.32
3253.78
3900.71
2280.95
2284.03
2162.97
2271.36
1226.62
1189.32
1203.28
1847.06
347.2
362.797
267.629
314.947
352.525
302.833
234.797
810.634
501.022
1365.68
1217.96
849
1573.71
207.633
563.578
427.511
180.393
1122.63
894.941
1555.78
1406.52
1496.01
1160.68
1236.49
1837.34
1986.18
1547.07
1520.4
1621.51
1591.53
1641.74
1373.17
1448.41
1434.85
2836.32
3699.38
3306.83
3729.34
3772.87
2912.19
2094.76
2073.48
2236.17
2214.24
2352.41
1756.14
2358.84
2348.67
1798.87
2026.31
1471.06
2223.52
2686.33
2545.5
1986.94
1004.91
3383.91
2266.85
2105.7
2548.34
2440.01
3615.86
4341.98
4947.15
3532.91
3002.39
2630.87
3919.57
2945.83
1244.76
1878.94
1950.7
425.13
1426.57
1284.82
2392.24
1888.33
1321.44
2488.77
2281.65
3085.4
1731.94
670.717
590.111
1454.89
2734.24
1828.54
1950.09
1959.68
1854.87
2889.69
3555.73
3290.65
2732.14
58.5265
85.9812
1112.07
1303.88
1366.67
543.086
391.897
574.697
304.834
423.503
125.353
1636.41
1657.24
827.764
1297.06
911.527
660.843
980.303
985.377
685.814
3249.87
3641.84
3242.95
2699.71
3161.55
1947.12
1423.86
1449.64
1313.77
1383.89
1884.26
496.212
2236.24
335.501
391.681
631.765
649.757
464.374
571.992
336.33
685.397
1091.65
146.447
553.995
907.373
945.959
1029.64
845.908
649.353
433.789
439.401
254.406
338.964
413.815
388.766
1732.18
3917.45
946.261
9550.6
9142.23
7936.74
520.706
2571.8
1805.74
1846.9
1729.06
1766.62
2525.8
1708.97
7521.08
3100.21
2787.43
2538.67
3012.23
2854.81
1769.41
550.675
516.412
482.243
503.438
1912.6
1116.8
605.608
988.671
438.388
442.947
1110.95
4019.54
4269.54
4361.45
2531.13
2300.84
2307.02
2493.2
936.535
1169.12
1836.45
1336.07
3290.47
2806.57
3431.03
550.314
3502.51
4401.22
2496.01
2795.21
9228.21
8881.03
7417.64
10452.1
9965.82
10153.5
461.002
3037.93
3102.92
476.407
9435.17
1714.07
5782.66
1719.6
1560.81
3471.58
2745.35
2424.38
4026.09
3582.04
4066.17
3106.3
2938.74
4695.9
4355.77
4390.58
4593.22
4200.98
4145.1
4352.56
4275.27
4648.83
3056.34
3085.72
4484.34
2991.39
12259.4
4843.73
2964.98
8666.58
7544.33
6332.12
2968.05
1033.72
1046.27
1003
1020.09
2965.72
2938.55
1081.57
1106.83
1056.84
1067.72
2948.37
9723.28
9861.89
8185.06
7246.72
8627.47
9250.79
4081.07
2293.88
2324.25
3007.06
1799.41
1743.96
1733.62
1759.93
280.4
651.916
4633.47
4793.87
4213.93
6105.03
5723.6
6008.75
567.908
660.205
509.973
3550.78
3231.41
4080.61
1083.03
712.802
873.958
1010.68
2392.02
2786.32
1486.77
3529.6
832.641
923.854
587.88
563.052
3506.12
3074.67
3009.17
3179.45
3106.81
3492.41
3419.69
2857.82
2734.07
3001.49
2870.14
3408.34
539.416
534.78
1229.83
1186.69
1376.7
1462.97
1610.38
1159.17
1144.89
1243.29
2208.23
2516.5
2365.53
2253.38
2493.42
2231.24
800.346
1263.93
996.676
557.44
536.231
449.558
483.517
1924
1895.09
1917.47
377.114
419.882
3210.27
2729.75
2730.57
2718.94
2722.91
3231.49
3110.62
2714.09
2725.85
2727.05
2724.01
3133.75
395.249
424.287
2514.04
2353.82
3734.56
3676.08
4641.01
5135.77
5041.94
5222.64
5219.94
4725
4120.14
4668.63
4510.24
4922.4
4812.95
4266.8
4715.78
4672.45
2964.53
3205.97
4811.48
4757.47
4919.15
4980.43
3249.76
2829.03
4557.46
4792.23
2877.2
3003.15
3686.73
3870.78
3787.63
1411.76
2675.23
2711.29
7099.6
7639.81
8145.57
922.277
933.759
834.069
899.276
864.668
799.041
926.652
907.313
1026.13
932.505
946.223
840.992
949.123
901.88
990.843
979.081
2865.96
1422.81
978.208
2125.5
746.299
3675.87
3751.14
4056.22
3121.4
2206.62
2272.93
2087.76
2146.51
3018.97
5162.65
5236.54
4102.71
4652.56
5004.51
5122.01
833.873
2267.1
2649.86
2961.32
3314.43
3360.96
3148.32
2409.14
2830.78
1959.82
6565.96
6553.01
5881.12
4964.71
5682.48
5913.32
2235.21
1564.15
1585.32
1528.33
1545.65
2198.63
1965.6
431.893
610.216
592.297
606.739
585.782
397.278
1095.82
1146.75
1006.08
3265.3
367.487
266.311
517.05
649.397
601.293
806.271
725.261
613.811
458.156
458.578
871.373
1042.89
1040.16
1036.36
1032.51
869.305
844.942
1021.85
1002.56
1050.19
1031.17
857.001
577.411
243.709
689.581
709.564
818.26
766.255
4443.77
4901.02
4773.48
5303.26
5124.7
4621.64
4186.64
4663.93
4704.34
4691.6
4653.43
4178.19
3233.41
3025.71
2726.09
4329.79
3870.38
3719.26
1193.31
1561.83
2947.77
2408.74
2387
2581.99
2471.9
2971.56
4902.29
5261.22
5320.19
4877.89
5069.71
4638.21
2461.9
1954.93
519.358
2769.84
3786.1
3404.81
2968.68
1724.42
1719.68
2278.2
1973.79
1552
2152.35
2602.14
2485.84
3049.34
2373.44
2418.33
2380.01
2365.92
3066.26
3397.99
2746.93
2566.4
2626.3
2923.4
3129.33
1157.76
1228.83
841.679
2860.8
2847.77
4506.86
4055.26
4076.64
4097.84
4059.54
4507.46
4618.69
4219.62
4185.35
4120.77
4176.77
4592.63
2922.46
2893.62
890.988
896.794
2027.3
1670.85
4093.66
3061.38
3344.58
4316.75
4543.16
3603.79
3791.12
1506.59
647.672
573.454
3003.02
2977.02
3122.59
2038.2
2700.8
2697.84
3491.42
3215.93
3197.49
3195.28
3211.55
3462.33
663.334
630.269
2768.19
901.245
917.246
893.166
888.714
2704.23
2914.63
966.353
984.363
929.823
949.69
2888.72
370.401
392.16
366.919
366.735
1726.23
1150.54
1174.06
862.3
599.459
520.061
467.69
1086.62
1185.52
1530.31
1648.22
1052.85
1355.58
2671.48
2004.16
1700.7
1093.15
3712.71
3604.95
3398.32
3613.18
1345.74
1496.39
974.526
1496.62
1434.14
1384.8
1010.79
1170.64
817.435
1049.64
1169.05
217.543
313.711
3968.92
2722.3
2817.54
568.724
2737.5
3687.71
3624.08
2766.76
2438.19
2783.62
2773.65
3917.26
174.734
196.991
1697.99
1016.71
1086.38
642.805