/*--------------------------------*- C++ -*----------------------------------*\
  =========                 |
  \\      /  F ield         | OpenFOAM: The Open Source CFD Toolbox
   \\    /   O peration     | Website:  https://openfoam.org
    \\  /    A nd           | Version:  dev
     \\/     M anipulation  |
\*---------------------------------------------------------------------------*/
FoamFile
{
    format      ascii;
    class       volScalarField;
    location    "900";
    object      yPlus;
}
// * * * * * * * * * * * * * * * * * * * * * * * * * * * * * * * * * * * * * //

dimensions      [0 0 0 0 0 0 0];

internalField   uniform 0;

boundaryField
{
    inlet
    {
        type            calculated;
        value           uniform 0;
    }
    outlet
    {
        type            calculated;
        value           uniform 0;
    }
    ground
    {
        type            calculated;
        value           nonuniform List<scalar> 
5358
(
44566.7
44567.8
44567.9
44568
44568
44568.2
44568.3
44568.5
44568.8
44568.8
44568.8
44568.5
44568.3
44567.9
44567.7
44567.5
44567.4
44567.3
44567
44567.1
44567.5
44567.6
44567.5
44567.6
44567.6
44567.7
44566.4
44566.6
44566.7
44566.6
44566.5
44566.5
44566.4
44565.3
48110.9
48109.5
48109.4
48109.2
48109.1
48109
48108.3
48108.9
48108.5
48108.2
48107.8
48107.4
48106.6
48106.1
48106.1
48105.7
48105.2
48105
48105.7
48105.7
48105.7
48106
48106.6
48106.2
48106.9
48107.4
48106.7
48107.6
48107.5
48107.7
48107.9
48108
48108.2
48109.4
50579.1
50577.6
50577.6
50577.5
50577.4
50577.1
50577.4
50578.1
50577.9
50577.9
50578.1
50578.2
50578.5
50578.8
50578.7
50578.5
50578.6
50578.6
50578.3
50577.9
50577.7
50577.5
50577.5
50576.7
50576.9
50577.9
50576.3
50576.5
50576.1
50576.5
50576.6
50576.7
50576.7
50578.5
51870.4
51867.7
51867.2
51867.4
51867.6
51867.2
51868
51867.9
51867.8
51867.9
51867.8
51868.3
51868.4
51867.9
51867.9
51867.4
51866.9
51866.9
51867.2
51866.7
51866.9
51867.7
51867.8
51867.8
51867.7
51868.1
51867.2
51867.6
51866.1
51867.2
51866.7
51866.8
51867.2
51869.9
52383.8
52380.2
52378
52377.6
52377.4
52376.2
52376.1
52374.2
52373.4
52371.4
52369.1
52365.2
52362.6
52360.3
52358.7
52357.2
52355.5
52355.9
52357.6
52361.2
52363.6
52364.9
52366.8
52368.9
52371.3
52372.8
52373.7
52375.7
52376
52377.7
52376.8
52377.5
52379.5
52382.8
52437.2
52433.3
52428.6
52426.6
52426.3
52422.7
52419.1
52413.8
52408.4
52400.8
52393.5
52385
52374.8
52364.6
52359.1
52354
52351.2
52353.7
52359.3
52365.9
52374
52382.7
52390.1
52397.4
52403.7
52409.3
52413.7
52418
52421.7
52424.8
52425.6
52426.7
52431.4
52435.2
52230.7
52225.6
52219
52214.2
52211.3
52204.4
52196
52185.4
52173.3
52158.6
52139.8
52115.6
52092.6
52068.9
52050.5
52039.5
52035.7
52042.4
52056
52076.1
52095.5
52111.9
52128.9
52144.6
52160.2
52173.1
52183.5
52193.5
52201.9
52207.8
52211.7
52215
52222.3
52225.9
51885.3
51880.4
51870.9
51862
51854.6
51843.9
51828.8
51809.7
51785.3
51755
51720.3
51680.5
51628.1
51573.6
51533.8
51511.9
51508.8
51524
51551.3
51587.8
51627.9
51666.1
51700.8
51732
51760.2
51785
51806.3
51823.5
51838.5
51849
51855.6
51863.1
51873
51877.8
51475
51469.2
51456.2
51443.4
51430.1
51413.6
51390.4
51359.3
51322.6
51276.2
51212.1
51129.6
51052.2
50982
50925.8
50894.5
50890.6
50911.1
50948.8
50996.7
51047.7
51104
51163.8
51220.4
51269.9
51313.5
51348.8
51378.1
51402.6
51420
51431.1
51444
51456.5
51462.9
51043
51035.3
51020.7
51002.2
50982.2
50956.3
50924.7
50879.8
50820.8
50747.3
50668.6
50572.3
50461.4
50350.8
50257.5
50205.8
50198.5
50226.7
50287.2
50361.1
50438.9
50517.1
50592.1
50660.1
50726.7
50796
50858.9
50904.8
50938.9
50964.3
50982.1
51001
51016.8
51024.9
50614.2
50605.1
50588.8
50565.6
50538.1
50502.1
50455.1
50397.6
50329.9
50258.9
50170.3
50050.5
49897.2
49735.2
49589.2
49488.7
49444.3
49464.5
49556.5
49668.5
49789.4
49904.3
50010.8
50106.2
50190.6
50269
50347.5
50419.9
50471
50506.7
50535.3
50560.1
50579.6
50589.2
50203.8
50193.6
50175.2
50149
50114.4
50069
50010.3
49955.3
49893.1
49827.9
49769
49801.9
23295.3
22959.1
22475.1
22127.3
22163.1
22506.2
22744.7
22923.2
23093.2
23261.2
23411.3
23538.5
23642
23725.7
49899.3
49956.1
50016.1
50066.9
50105.9
50136.5
50159.9
50171.2
49819.2
49808.8
49789.1
49760.3
49720.5
49668.9
49618.2
49567.2
49515.9
49489.7
49582.4
50217.3
22463.9
23845
10204
9702.3
7450.98
11234.1
21106.2
21135.2
21399.3
21708.7
21956.5
22163.1
22322.9
22443.9
49531.2
49544.4
49601.2
49655.4
49703.3
49740
49766.6
49779.6
49464.5
49454
49433.6
49403.7
49361.2
49315.8
49271.6
49224.4
49188
49217.3
49521.7
50934.3
24439.5
32384.4
9531.1
7118.64
9537.93
25305.1
21801.6
21112.2
21563
21856.5
22050.6
22188.4
49235.1
49184
49236.3
49287.8
49335.1
49375.6
49404.3
49418.6
49141
49129.8
49110.1
49080
49040.1
49001.7
48959.3
48912.2
48883
48936.3
49364.6
51271.1
25301
13557.2
22172.6
12216.7
12569.2
3399.22
13011.1
13855.6
36809.6
23593.5
21874.1
22040.9
22206
48984
48873.9
48916.5
48966.8
49009.2
49046.4
49075
49090.3
48846.5
48835.5
48817.3
48788.1
48753.9
48718.2
48672.7
48620.5
48581.3
48612.4
49072.3
51362.9
26086.2
8273.81
2323.99
3620.83
5280.42
3728
2620.91
5014.03
4041.95
33760.8
26054.7
22586.5
22113.9
22254.5
48747
48606.8
48638.6
48685.2
48724.1
48754.8
48779.2
48794.5
48578.8
48568.9
48552.2
48525.2
48495.1
48458.5
48408.3
48347
48283.9
48270.5
48793.6
51649.5
27142.1
8085.9
27393.8
27822.6
22329.8
42506.7
31257.6
22901.3
22399.5
22308.1
48496.3
48367
48392.9
48435.2
48472.2
48496.9
48515.9
48528.6
48335
48325.9
48311.2
48286.9
48258.7
48220
48165
48092.8
48000.4
47954.5
48623.9
52053.9
28021.6
15812.3
13454.3
17407.3
9203.37
35532.2
29948.6
23025.9
22417.5
22375.2
48227.9
48137.3
48168.5
48208.7
48243.8
48266.1
48280.2
48289.9
48111.4
48102.6
48090.4
48067.9
48039.1
47997.9
47938.4
47854.8
47729.9
47650
48394.6
51890.5
27871
27185
1428.35
2137.58
19851.8
31446.6
17757.7
29470.6
27678
22216.6
22234.6
22436.7
47949.6
47907
47953.8
47998
48032.8
48052.9
48064.1
48073
47902.8
47895.6
47884.6
47861.6
47831.3
47787.2
47721.6
47624
47458.8
47319.4
48021.3
51221.1
27249.9
25312.1
6220.36
2224.84
1322.41
2316.16
2509.06
27959.6
28253.1
22235.7
22480.2
22468.6
47662.2
47674.9
47743.9
47794.5
47831.7
47851.7
47864.4
47872.5
47706.6
47699.3
47687.7
47664.5
47630.3
47581.3
47506.8
47391.7
47178.1
46949.5
47511.6
50238.2
26330.3
24325.2
17133.1
2223.19
1880.25
7208.73
19542.4
24113.4
34164.1
29733.8
22668.9
23507.9
22466.7
47368
47442
47536.9
47594.7
47636.1
47661
47674.8
47683.9
47519.6
47511.6
47499.5
47475.8
47436
47378.2
47292.9
47157.1
46891
46549
46906.3
49137.2
25304.5
23680.7
17240.1
12503.7
13972.9
13628
17520.2
16681.4
26534.3
35479.3
30100.9
23308.4
25057.9
22414.5
47075.2
47212.9
47332.6
47400.1
47448
47477.6
47493
47502.9
47338.3
47330.2
47316.9
47292.2
47248.3
47179.7
47078.8
46921.3
46605.7
46143.5
46263
48039.8
53492.1
51421.7
50025.4
43873.8
40473.5
36829.5
32196.9
49401.1
66889.8
76256.4
64735.2
59662.9
54884.4
47154
46809.1
46998.1
47140.2
47214.3
47267
47298.6
47315.9
47326.5
47161.7
47153.1
47138.7
47112.3
47065
46987.4
46871.1
46683.6
46321.3
45750.4
45650.5
46918
52224.6
52120.2
53532
51959.8
47295.9
42209.9
40291.6
51687.9
64060.9
70858.2
61866.9
58569.7
53833.2
46820.9
46575.9
46803.6
46955
47033.3
47089.2
47123.3
47142.2
47152.9
46988.5
46979.3
46964.5
46937.3
46886.2
46802.9
46672.6
46457.4
46048.1
45380.9
45077.8
45810.2
50825.1
52495.3
55695.3
56056.1
51849.1
45326.1
44076
53698.5
62670
67113.1
61005.2
58449.3
53001.9
46574.4
46357.9
46615.8
46771.4
46855.7
46913.8
46949.8
46969.2
46980.8
46817.5
46808.2
46792.3
46763.5
46709.3
46620
46477.9
46239.7
45787.4
45037.6
44552.9
44782.2
49434
52030.8
56332.9
58309.6
54321.2
46919.6
45122.3
54802
61925.4
64549.4
60864.3
58256.5
52296.2
46379.1
46153.7
46432.1
46590
46678.9
46740
46777.7
46797.6
46809.9
46650.2
46640.2
46623.2
46592.3
46534
46439.2
46288.5
46030.3
45542.9
44725.9
44082.2
43862.5
48119.9
50816.5
55987.6
59648.4
56188.6
48215.2
45029.6
55359.4
61492.6
62811
60711.2
57798
51683.7
46215.5
45965.2
46253.4
46412.3
46504
46567.6
46606.9
46628
46641
46485.3
46475.2
46456.7
46423.4
46362.4
46263
46105.5
45831.8
45318.5
44449.8
43671.3
43064.9
46918.9
49172.3
55325.2
60357.8
57248.6
48827.4
45098.7
55651.8
61194.5
61620.1
60342.1
57177.5
51145.8
46073.8
45792.4
46081.4
46238.1
46332
46398
46438.7
46461.1
46474.3
46325.9
46315.2
46295.3
46259.9
46196.8
46094.5
45932.5
45648.4
45116.1
44211.5
43321.1
42388.6
45835.3
47470.1
54759.6
60726.6
57682.2
49093.7
45098.7
55720.6
60914
60740.8
59778
56484.9
50667.7
45947.5
45635.7
45919.9
46072.4
46167.1
46233
46275.2
46299.5
46312.6
46168.5
46157.5
46136.6
46099.5
46035.4
45931.7
45766.7
45478.3
44935.9
44008.7
43028.6
41830.4
44891.7
45997.7
54597
61095.2
58026.4
49360.7
45223.3
55729.6
60698.9
60076.9
59131.2
55794.8
50241.5
45834.8
45495.2
45767.7
45912.8
46006.8
46072.3
46114.5
46139.3
46152.8
46023.9
46012.8
45991.2
45953.2
45888.8
45785.4
45619.8
45329.9
44783.6
43842
42791.2
41374.1
44049.5
44773
54423.6
61045
57912.5
49290.7
45056.3
55431.7
60278.5
59383.3
58352.2
55071.1
49842.4
45736
45375.6
45634.3
45770.4
45862.7
45925.8
45968.2
45993.2
46006.5
45874.7
45863.8
45842.2
45804.2
45740.4
45639
45475.4
45188.9
44647.2
43704.5
42601.8
41030.8
43364.2
44192
55104.9
61752.7
58692.2
49783.2
45568.5
55643.5
60189.1
58940
57737.6
54458.8
49488.4
45644
45266.7
45506.2
45629.6
45717.4
45777.3
45817.9
45842.4
45855
9798.38
9807.78
6556.78
23208.8
16826.3
11148.7
23454.7
9648.17
3670.68
16820.8
1412.34
7822.59
12191.3
1851.29
1152.64
1428.69
2748.82
26216.2
5756.94
916.571
13267.7
1792.44
4131.96
22814.8
14177.2
1801.07
3845.52
4793.36
9589.76
3101.47
26855
4165.26
9767.48
3405.23
7402.64
19546.4
3143.18
8853.62
20709.7
28517
8429.75
3122.33
21986.5
46932.7
18759.3
16138.2
431.624
1084.34
11747.8
681.151
10330.7
10468.8
9607.49
21548
12916.7
1788.53
19838
419.474
2500.32
3835.99
1680.77
5274.16
15022.9
11919.5
1495.48
323.448
2218.99
1615.34
214.876
441.475
6970.65
7045.96
8523.83
7982.29
11801.6
28004.7
8351.26
483.851
15677.2
6113.33
460.889
14038.9
15900.1
3902.04
8706.41
5689.99
12061.5
16403.8
665.245
8108.29
13890.2
18140.3
16075.5
5399.35
4004.43
22053
10071.7
21665.9
22290.3
9905.58
11303.3
13159.9
5060.79
21462
13971.4
10654
21058.9
21157.3
12950.5
20003.7
34966.2
13917.4
716.034
7661.52
4306.77
2884.11
1303.18
5956.95
9396.11
11153.8
9508.94
2389.31
8273.61
1517.12
25269.8
29899.2
24115.6
20930.3
39437.3
29207.5
13161.4
14091.6
25720.8
12137.8
1335.22
4706.04
12235.1
8387.73
4827.04
1932.62
2968.27
309.969
13332.8
3888.05
13529.4
8027.33
27810.6
27018.7
31804.7
14697.1
16451.7
26564.8
8186.8
11760.8
3756.2
3807.88
12836.3
58854.8
25602.6
4385.07
17117.5
18656.9
3812.53
5797.49
4640.8
14621.3
41052.2
20029
16759.5
16623.4
27692.3
7888.27
2310.35
2425.29
12045.7
11401.9
28827.6
2772.39
3440.37
10926.3
3492.84
2772.47
7406.18
9207.49
1971.18
22970.1
8705.77
11675.3
4838.01
29297.4
13994.8
9718.33
7960.52
2773.18
2231.4
3637.59
4055.51
8763.52
22661.6
8804.77
8228.27
4206.96
4405.52
26068.1
1055.96
21177.4
3279.33
2400.51
23228.6
4272.04
3411.24
38572.9
13308.1
4683.51
7325.2
6156.92
4416.72
6010.71
13661.8
2244.97
1814.99
7951.72
6596.2
1020.52
3411.44
1781.07
3844.35
3110.18
2659.54
6282.1
15524.2
17956
2992.19
6375.69
8035.37
2705.51
10786.8
10327.2
5264.26
12505.1
8932.56
5860.22
10303.8
7049.84
4164.19
1488.67
848.627
22203.8
1247.18
1858.78
7451.07
8887.9
24205.7
7151.65
1549.24
7508.88
23436.2
9760.37
2665.74
624.962
13492
2190.51
5755.07
12185.3
1266.15
1229.79
1633.93
2837.17
1594.13
10382.9
106.686
12204.4
1488.99
9115.4
648.559
2650.32
12940.1
1669.73
3525.8
1495.52
6032.84
16302.2
14791.6
6495.49
5380.53
3054.39
4403.14
4522.35
2709.54
3149.49
1936.19
5992.84
4375.77
7687.59
3012.15
13908
4224.82
4294.86
7341.45
1061.87
24094.8
7972.16
4459.19
13266.3
5611.41
4042.65
3786.32
1702.26
7855.26
1860.75
1969.79
1979.87
3003.56
7804.81
1557.35
10974.1
2976.28
2173.86
5999.97
2568.5
21690.7
2243.06
5233.68
3676.71
11889.4
9699.5
11441.5
3337.21
2350.46
29220.8
10614.3
3613.44
9534.64
8663.65
8145.43
7231.56
5488.53
6269.84
6435.9
5425.34
22762.8
22906.6
9088.75
6047.83
5738.44
6409.9
6151.66
5498.28
21842
8929.27
9571.71
9846.11
14876.1
4833.96
3193.76
2614.03
4785.78
1389.25
6708.88
8602.11
7595.77
15358.8
13365.3
3557.39
2898.47
9424.4
7182.51
9600.55
22991.4
5324.74
12096.6
13650.8
15172.7
2394.46
7872.04
15011.7
8118.1
2251.33
755.832
2283.39
904.008
1141.98
2101.45
595.363
3488.46
12397.7
1268.93
6556.12
4250.56
5769.83
4675.53
472.889
2272.74
483.242
1996.58
570.813
6154.34
8463.85
5954.2
5664.47
584.814
1001.38
5620.51
6082.92
2511.69
2035.52
2511.23
3137.57
7153.3
7013.57
2693.76
13716.5
8156.91
4026.79
4091.79
1282.34
3956.7
8176.68
7654.85
4412.34
3487.55
4394.3
22297.1
21632.7
21835.3
26176.6
20421
29967.3
10309.1
10722.2
13028
7081.2
9061.03
7939.44
9093.75
6090.65
5884.12
26691.4
10226.5
3434.16
12275.2
12437.7
12352.9
11361.6
5438.75
2850.31
14255.6
6124.18
5043.32
5061.78
4234.99
1452.07
668.896
1656.21
1588.4
6801.18
17861.6
16742.3
7115.5
8337.75
2936.37
5941.77
15662.1
14788.1
3496.01
3113.76
3676.96
2596.04
4432.7
4312.75
17954.6
16128.8
18169.6
1206.14
8434.04
10094.4
3865.8
3650.1
4088.44
7674.1
6172.02
3066.53
15245.9
12512.5
15654.1
2881.8
2681.92
9609.56
21958
24761.3
3752.73
4947.76
5517.59
1048.31
325.557
1452.42
3471.8
3300.15
1053.33
3223.25
98.7657
1394.88
493.847
479.083
4280.39
9153.39
2514.74
6362.67
6411.95
7657.45
2913.32
1163.58
15776
14575.1
17713.7
21919.7
21804.7
17742.4
15909.2
16218.7
9996.46
550.623
387.811
8620.87
10601.2
4566.75
7600.51
5711.6
3130.08
3007.42
442.868
703.885
15395.9
3712.79
20080
3103.29
3134.17
4185.77
1266.3
11836
11948.2
12034.1
1733.49
424.44
1595.07
1772.94
696.438
912.312
2665.47
1952.65
19901.5
9215.35
27116.2
1996.87
1511.37
929.143
3637.36
2386.63
2780.11
9740.26
2892.2
4116.98
3599.09
3707.48
2862.94
1285.64
3609.67
8794.79
1855.8
1488.13
3362.62
3848.3
23269.5
24438.4
21270.9
3576.86
9389.65
2101.77
4524.7
2494.06
1499.66
1644.91
3694.67
714.83
1588.91
2695.61
3133.15
1762.81
6457.53
4544.74
111.161
9363.06
8361.54
9637.39
5207.58
5537.9
1983.12
21290.4
19204.7
17417.2
741.408
2567.82
234.218
1093.78
1653.98
1349.09
3861.03
4397.13
5698.41
3132.11
2117.74
1842.77
424.183
2534.14
407.385
2210.02
426.966
231.798
432.5
2836.41
3911.81
2308.35
2363
529.707
785.046
2528.66
2140.18
472.557
447.968
6168.74
5473.28
6281.67
7616.85
4648.09
5095.35
213.442
519.751
8750.44
8274.41
7772.45
7099.83
7817.67
8624.15
2084.73
2016.79
6439.41
6544.85
6260.64
8193.58
4185.1
17056.7
7775.96
17308.3
10842.6
9026.69
8964.85
316.959
3090.33
2942.65
9725.7
9566.18
9541.77
9622.05
9653.63
10739.5
5975.28
6513.56
5813.02
18469.9
17090.5
17675.3
1615.4
2106.88
1378.12
1345.23
8295.53
6210.42
5248.37
4189.29
554.269
3810.52
366.501
9904.4
16812.3
10159
8866.39
2815.27
4444.97
4745.53
10294.9
4580.15
4709.93
12682.1
20189.3
28274.6
22659.6
20141.1
26699.7
4021.05
12092.4
5516.03
3725.29
7537.6
8910.29
6196.43
12443.4
12491.9
12308
2986.87
2972.22
2957.75
2975.37
8302.3
12386.7
22056.1
8152.99
11190.9
7845.25
4996.07
8035.38
2971.29
181.148
222.142
3542.18
6345.6
14138.1
842.111
863.926
4353.17
753.926
844.478
4840.54
396.346
930.595
3420.88
3493.46
3307.34
3460.34
1621.33
1234.08
1495.08
1652.75
621.627
387.615
182.091
270.699
397.585
22156.7
23979.2
27337
6094.3
5821.87
3714.81
2181.81
5641.15
5440.18
3202.54
3268.1
3137.82
3181.23
2952.98
2436.81
3697.22
3589.91
11886.4
4547.42
4714.79
4000
4431.76
11660
2996.27
11838
11777.6
11537.8
11759.9
3071.31
3134.55
11816.4
12031.6
11238.3
11512.9
3017.94
2652.7
3233.24
7725.72
7926.72
3354.32
8811.03
8222.25
8262.62
9789.79
9537.73
18107.5
14212
9007.77
14454.3
15618.6
7305.68
9791.78
8426.11
8503.18
7661.57
7956.62
8979.53
2788.69
2507.68
4596.47
4997.96
2426.86
9453.91
8841.67
3770.99
3528.2
3269.83
4301.42
12368.9
13233.1
11053.9
11664.3
4630.12
1223.63
3028.29
6571.72
6287.5
3210.07
6956.98
2920.3
9181.9
9562.26
11052.4
7565.51
8480.23
8515.9
5841.53
15883.2
15512.6
13198.4
14033.3
5471.83
2614.75
2417.65
4821.07
5177.97
4140.65
6449.2
5858.71
5527.54
1540.1
1710.67
399.719
350.913
1064.99
2876.08
2857.04
3220.54
360.787
163.586
1631.7
347.752
603.822
501.605
496.887
2943.41
971.096
1021.94
879.466
949.771
2820.05
2701.39
979.443
2794.9
2771.32
813.348
589.416
10519.1
4294.88
4869.62
4235.55
4219.26
10337.5
3082.48
4046.56
1407.26
8894.05
7484.04
7704.03
5798.97
6722.68
8459.9
2940.28
3024.57
10170.7
5097.18
4397
652.132
3719.83
1732.21
1741.44
1649.37
6201.99
6178.98
5709.85
5957.14
1972.24
3048.77
3084
8001.47
7257.67
7022.57
7678.66
7512.26
8610.15
4086.95
6398.46
3168.27
615.821
5432.67
5412.57
4542.02
4542.85
4588.33
4586.58
4278.57
8254.05
9522.56
5669.23
6751.34
1433.42
3276.98
2123.06
3476.08
3434.18
2812.23
2746.88
2954.44
2867.33
12051.9
12104.2
12323.8
1705.34
453.984
1605.92
2224.83
1166.25
8880.77
8154.01
8347.6
9477.82
559.386
1041.09
4056.01
2182.89
502.969
4076.27
2093.87
2732.73
4020.86
1940.43
1763.28
824.935
5919.98
84.9851
252.534
3193.12
134.295
767.165
3424.17
654.744
3488.07
3420.92
1063.08
1213.05
816.905
893.152
2257.49
1198.94
2516.48
945.144
1461.44
1032.98
1671.89
252.371
5002.77
145.091
159.469
4620.01
1591.53
1437.29
8766.53
2697.27
2129.58
4767.95
4579.31
2630.51
4048.96
5240.32
5461.69
3158.49
6239.2
4441.57
2313.59
11302.7
10860.8
4002.55
760.153
4385.29
6466.44
668.93
811.182
803.141
3276.68
2753.4
3134.29
10252.4
2561.83
3745.83
2786.29
7856.98
9420.29
1012.44
1601.68
2735.73
8429.52
7970.98
1829.55
1298.94
4480.8
339.455
4578.15
3004.39
11302.3
1432.1
3534.29
4038.19
4569.72
4992.84
12118.7
11346
11731.4
12092.3
11469.8
4313.22
3936.07
2109.73
10154
10978.4
2674.86
2631.95
4166.92
2758.25
7659.55
7659.65
8312.1
3124.13
2923.57
7317.44
2356.57
2503.83
5669.31
371.279
392.505
377.122
374.061
5976.34
416.848
344.383
5195.83
6013.48
402.153
396.287
377.364
400.865
5998.88
6467.43
382.574
379.529
393.338
383.691
6298.13
10223.5
9169.63
9079.74
8707.14
8858.54
10174.4
5120.93
856.11
5267.81
4408.58
1832.51
4855.81
7430.98
6996.68
1969.54
3085.97
601.746
666.512
2956.48
116.399
2678.57
2475.14
2773.76
3839.88
2809.02
1983.41
6011.03
6149.9
588.353
2461.42
621.32
1322.76
1914.44
2856.39
3306.97
1160.04
4135.32
3868.64
2945.68
1762.1
1384.13
3170.63
4964.71
1184.16
2355.84
2177.03
433.581
2476.59
451.32
338.065
374.731
2110.86
2177.66
2125.03
502.082
557.289
2364.12
2366.18
2906.35
2836.61
877.196
2361.89
776.531
854.534
650.702
748.951
2202.06
437.905
391.502
2974.91
1004.36
536.71
1028.92
1049.85
3307.53
530.348
499.409
2374.76
2612.26
5962.56
5399.55
7243.63
6598.45
3332.02
3377.89
3282.68
3341.76
357.491
1111.55
4319.76
2161.44
1125.13
1260.12
2387.32
4437.7
3812.31
1342.63
1414.85
1666.35
3921.96
546.531
3222.24
3125.08
2213.34
2027.07
2617.98
2290.94
1851.88
1800.77
1983.48
1879.61
10138.6
14722.1
13517.6
7724.27
3174.31
9346.06
10654.2
10608.4
13060.7
12792.2
12051.2
2880.15
2778.58
3301.38
13901.8
5166.19
12915.3
8079.8
7977.37
8311.82
2325.9
2183.9
2490.95
2990.86
5387.15
5079.16
2459.81
2834.22
2266.95
4544.25
5773.37
5317.64
7777.16
7673.3
8030.27
21930
22699.2
23042.8
37451.5
35017.8
38277.9
34727.9
32607.2
28050.6
4321.32
11983.3
15007.2
32580.3
30490.1
32948.4
1386.39
1680.11
1597.66
2572.07
2756.2
2521.73
28644.6
27897.3
27064.6
2981.29
2978.39
2412.05
2114.29
1650.16
1043.27
138.303
327.714
2314.45
2412.99
2360.24
2788.02
2409.14
749.461
393.626
29070.5
30427.5
25514.9
10147.4
9982.47
9507.96
11357.2
9997.83
9287.3
10588.1
10642.1
9767.88
3775.58
3212.16
3036.14
1295.42
7182.37
8146.02
8224.36
1785.4
1060.65
1049.37
623.347
581.554
1015.65
1602.55
371.163
766.938
11594.1
11693.7
13162.4
1857.26
1501.14
1540.37
1330.51
790.097
1584.55
1634.55
1854.72
4726.6
1191.53
4584.06
4345.15
4285.15
4829.91
9548.3
3322.52
8593.7
4008.39
7753.31
7447.85
6870.83
2595.02
2419.1
2597.84
19789.4
21592.4
20290.9
513.115
993.049
404.514
868.545
12614.3
13986.6
4734.49
852.452
1437.28
804.241
10529.8
8429.85
8199.89
17950.7
17132.7
22200.1
1973.35
2012.1
1874.76
471.695
337.036
1577.9
1765.12
1843.02
13822.1
14536.2
15886.1
11792.3
13110.7
12679.1
243.806
2114.81
296.004
667.832
799.153
398.519
503.463
625.464
474.87
7711.14
9441.75
9997.43
502.527
420.379
2680.12
2663.17
2377.18
731.84
8127.75
7930.81
7861.23
17710.7
18333.9
18879.4
16988.9
17796.5
16971.1
4538.53
5168.65
5728.9
4097.08
4216.45
4133.75
14005.5
9411.34
9358.06
11139.5
9707.69
12614.7
9304.39
9350.63
11078.6
928.674
4377.27
4273.27
4144.31
2334.15
2318.37
2874.48
998.376
8727.08
9504.3
10176.4
8209.51
1898.27
11244.3
10401.3
9591.97
8997.03
2383.05
2812.68
10006
2627.82
9896.37
10545.2
8928.29
2353.26
2209.07
2937.95
2984.1
29738.5
23453.5
24100.3
12800.5
12590.2
13392.8
12369.8
12783.4
12139.7
1794.67
5433.81
6567.6
5803.06
7455.58
8101.33
8322.66
6478.34
7602.62
5889.31
2527.4
3007.06
2319
2260.59
172.548
206.706
257.924
4090.53
2911.71
2532.99
12894.7
5085.97
14019.9
15377.7
13385.4
13102.5
14050.5
13723.5
15982.2
601.391
589.347
495.858
479.093
8290.41
7966.21
7912.64
3536.26
4366.21
4496.5
303.743
19614.5
19160.2
14954.3
5056.05
5399.72
4202.15
5476.72
5696.24
2067.17
17919
17959
19969.2
16866.1
14669.6
14375.8
15134.7
14886.3
16814.3
354.49
398.502
437.233
436.781
7965.71
7555.74
7458.27
2610.25
2381.53
2830.56
4416.54
4182.4
4917.1
4759.85
3254.82
3320.94
4959.84
5101.98
4219.03
4260.56
2637.62
3221.02
2825.73
1197.17
8969.41
9542.54
9109.39
5985.87
6740.67
6230.49
8547.97
8526.4
8749.74
8142.45
8279.45
8325.19
4351.48
5416.81
5565.14
956.276
443.861
404.887
3241.07
3126.59
3208.87
795.31
3131.14
2531.26
5489.38
5667.29
4936.97
6947.87
6774.08
7134.39
6028.25
6401.27
6554.04
2195.88
1034.41
1338.07
1357.76
3369.8
3450.46
1169.29
1581.51
6457.49
6883.84
6810.98
725.922
757.613
671.206
620.17
5513.95
6218.17
6012.93
9615.91
4221.52
8490.7
3938.57
3679.44
3985.78
1606.71
1444.4
1483.39
1767.99
1729.12
2260.39
2459.7
2047.21
6780.06
7154.38
7015.17
984.062
1257.86
1624.98
1933.66
7204.73
5910.34
4344.5
2865.22
2899.17
2950.84
2980.29
9798.72
10725.6
10743.6
1846.66
2222.62
3468.81
4180.03
3566.76
4313.12
4131.87
1703.33
5648.03
7049.62
6307.9
541.842
213.175
638.136
612.215
1530.79
1244.98
1477.74
1421.12
1511.95
1315.05
1651.58
2155.15
2026.47
2720.3
1560.25
9579.32
10433.9
11125.9
2920.02
1887.62
2926.96
3233.24
7471.23
6898.55
5688.85
7299.62
7689.3
8685.93
563.486
580.879
1566.84
1186.7
575.427
2734.79
2337.4
2495.72
316.025
252.89
177.832
145.918
12981.4
11489.7
11063.5
1214.8
1285.84
1805.37
2220.92
1886.96
3033.91
1264.44
940.018
1107.97
2109.23
2220.67
619.38
628.42
1729.57
4121.76
3019.94
1067.59
1420.16
8795.85
10061.3
9431.23
5212.38
5003.57
5550.5
4573.47
4388.91
4723.54
1453.29
4694.53
1974.37
2173.61
1735.09
7782.41
3015.07
7874.7
1727.38
1646.75
1810.92
1403.47
1213.85
2263.73
7380.47
7142.99
7656.47
576.416
460.398
5470.21
2437.1
2938.52
3811.36
3778.27
1653
1696.13
2280.99
1399.23
7351.55
7302.25
3080.93
2804.64
2362.81
1788.44
10594.3
9196.37
10619.7
10655
9812.51
8911.21
10934.6
10516.3
11207.2
3685.8
4639.8
4361.88
3743.71
3874.26
2773.67
904.908
557.039
11509.1
10926.7
9962.17
12063.9
11540.9
11553.9
566.292
577.45
1504.72
1154.18
6521.09
7975.3
9565.81
5049.16
613.236
4100.95
9695.48
10689.1
10337.9
6886.52
4431.11
544.983
8463.84
7290.47
8757.1
4872.97
2085.82
4291.78
4819.4
5309.44
2658.88
8046.86
7246.5
7849.32
6393.72
7196.19
613.965
673.949
2561.88
2621.24
7069.32
6908.6
8043.26
2053.52
2598.07
2822.04
560.537
821.942
431.031
470.583
1213.26
1135.85
1007.22
655.107
1400.61
1043.21
1101.64
1030.04
6171.19
5799.76
5938.41
5404.36
5321.95
5667.84
4553.4
4969.7
5037.56
442.398
2315.79
483.272
927.024
879.675
548.873
576.713
945.246
953.766
1334.69
1303.21
975.473
640.178
685.642
2190.57
2152.64
3472.8
3509.44
7960.67
7951.44
8118.99
465.399
464.451
325.633
464.196
1510.7
1501.26
1302.96
8094.5
7948.32
8062.77
7459.82
7748.27
7917.88
4658.08
4837.51
4313.25
3080.8
4274.96
4352.96
4501.66
17523.2
15968.8
19144.3
3563.47
7269.81
1505.88
2400.3
5560.57
2301.95
10429.9
11183.8
10044
5393.42
6689.04
2744.03
4103.89
2023.61
2142.91
1834.18
1926.84
2980.75
2584.23
2463.17
6759.88
6604.24
6533.12
5239.39
6174.38
6567.66
1757.09
1694.66
1616.43
1049.7
1223.69
997.084
1647.01
1841.54
1844.96
1859.97
1859.39
1630.23
2642.69
3358.57
3544.55
3391.55
3271.23
3733.72
2525.4
1676.08
1415.3
2452.66
1093.29
4314.2
3778.11
4189.31
2991.82
3795.92
1520.62
2425.49
1940.02
3860.21
2652.92
2704.73
2496.62
2577.34
3770.43
469.272
2146.44
2042.64
2882.32
3029.08
3164.43
2816.14
1857.46
1895.62
1781.74
1819.78
2750.08
506.622
468.711
54.8972
1163.35
1112.77
1128.4
3214.22
342.819
960.623
402.185
1638.73
1516.43
1202.01
489.745
484.883
407.665
2586.1
2996.94
725.153
747.613
428.372
405.174
4929.96
3379.96
10030.8
2426.86
2668.84
863.329
4776.17
4930.4
5127.7
3108.6
2398.94
2401.14
2387.05
2394.55
3061.41
631.706
661.856
5773.86
6007.14
4299.19
3117.77
2398.26
2390.42
2402.7
2402.12
3130.04
3497.05
3343.86
3986.09
2310.89
2299.86
2213.91
2317.88
1235.4
1082.37
1087.07
1755.78
400.852
427.819
343.693
364.924
623.087
392.9
361.459
865.435
466.88
1606.11
1109.55
781.393
1474.34
193.789
532.998
461.415
160.366
424.177
309.667
923.507
677.183
782.315
1420.62
1460.45
1911.85
1982.68
1683.08
1657.55
1466.59
1672.85
1762.29
1192.42
1446.48
1334.56
2736.24
3524.63
3165.61
3514.51
3570.05
2810.11
1580.58
1585.81
1392.38
1472.74
2397.47
1800.86
1179.73
1221.07
1233.39
1126.6
1434.09
2165.93
2610.22
2453.24
1925.19
951.734
3523.03
2434.38
2257.89
2683.41
2588.46
3740.58
4332.68
4902.56
3478.78
2956.54
2603.24
3966.54
2943.16
1206.56
2085.4
2131.62
426.618
1495.56
1297.13
2512.01
1977.85
1369.47
2648.64
2412.37
3264.55
711.725
640.733
555.417
1350.69
2778.02
1757.15
1843.34
2066.55
1902.52
2982.89
2518.63
2237.19
1195.89
49.4979
64.8182
1960.48
2145.87
2011.52
548.514
488.228
663.37
322.562
375.878
166.444
1592.54
1647.48
768.03
1239.68
878.239
741.592
1517.58
1634.78
1465.53
2936.17
3367.26
3035.57
2520.64
2955.25
2049.64
1453.27
1487.66
1328.77
1406.06
1965.59
501.207
2432.96
333.3
428.448
763.402
774.301
574.609
708.538
369.239
686.538
943.202
106.346
502.273
874.626
908.329
1035.22
851.348
647.135
465.179
457.05
336.138
454.759
416.059
487.473
1781.99
3766.1
1145.92
9565.94
9145.23
7973.79
537.612
3048.79
2008.86
2045.78
1933.28
1971.86
2999.67
1713.65
7536.64
3109.46
2796.55
2546.41
3021.73
2864.21
1748.7
512.408
494.751
595.132
451.149
1880.15
1140.1
602.481
979.974
431.077
446.708
1161.06
4011.27
4260.98
4356.03
2526.11
2295.36
2304.7
2489.21
931.425
1160.53
1831.12
1331.16
3285.96
2801.04
3424.06
542.273
3537.13
4440.71
2505.67
2817.96
9311.36
8951.19
7417.91
10581.9
10066.2
10255
549.987
3062
3051.51
510.113
10247.5
1763.74
6234.44
1729.15
1568.14
3493.07
2762.69
2441.43
4050.12
3604.04
4090.43
3114.5
2947.22
4714.91
4371.6
4406.34
4611.38
4215.67
4159.34
4368.31
4290.87
4667.29
3063.29
3092.9
4496.06
3001.91
12287.4
4859.53
2962.23
8617.3
7488.39
6311.76
2988.47
1047.07
1058.29
1018.34
1034.38
2985.94
2953.51
1088.67
1111.87
1067.39
1076.64
2965.57
9913.32
10088.4
8258.02
7044.65
8607.48
9345.35
4217.88
2392.36
2378.16
3011.72
1846.7
1806.26
1760.02
1813.13
181.38
427.281
4704.03
4856.41
4266.05
6187.52
5797.81
6097.37
583.188
669.923
515.688
3612.57
3296.27
4169.17
1104.6
722.915
891.133
1029.99
2430.37
2901.91
1491.91
3462.16
832.944
924.459
575.082
548.638
3458.7
3026.33
2962.79
3144.32
3065.43
3452.95
3388.66
2813.43
2692.21
2953.02
2824.35
3375.8
528.837
522.516
1293.09
1264.85
1357.84
1482.86
1594.12
1168.2
1166.87
1234.89
1535.15
2096.22
2232.41
1863.42
1950.77
1618.58
851.041
1170.72
980.586
339.135
312.577
381.379
395.376
2396.29
2472.65
2362.07
379.005
415.629
3226.17
2733.73
2740.48
2711.01
2719.76
3243.07
3141.6
2748.78
2768.11
2745.34
2749.81
3158.78
399.692
422.724
2769.59
2396.11
3717.28
3669.13
4647.34
5114.79
5036.7
5163.33
5176.51
4715.95
4171.22
4714.16
4571.9
4934.74
4836.29
4308.5
4584.68
4547.18
2920.4
3143.95
4656.64
4614.59
4764.84
4846.96
3224.86
2841.51
4484.13
4649.84
2746.94
2874.74
3564.26
3747.24
3660.22
1508.43
2803.52
2832.48
6801.24
7245.54
7660.44
778.397
828.884
721.458
756.357
806.807
746.447
836.788
841.047
1071.81
1137.15
920.834
894.627
1145.49
1111.79
1307.9
1319.6
3004.34
1500
1008.18
2266.7
768.921
4051.67
4058.25
4372.32
3421.8
2363.17
2429.59
2251.05
2305.84
3335.39
5133.79
5186.81
4005.84
4644.2
4997.38
5114.24
775.7
3252.7
3120.29
3145.33
3290.22
3185.4
3047.58
2745.8
3338.3
3292.3
6698.65
6673.14
5979.76
5194.65
5963.13
6157.63
2547.67
1708.09
1744.76
1637.71
1672.67
2482.14
2013.13
398.279
628.306
605.977
661.546
640.528
355.134
1180.48
1282.83
1054.03
3258.06
314.118
236.547
441.023
557.105
492.806
719.27
649.078
538.314
499.132
499.388
991.684
1173.38
1145.01
1216.14
1193.44
1009.23
903.826
1065.15
1035.26
1120.31
1092.03
927.604
749.912
314.163
621.521
657.211
816.339
764.394
4438.18
4896.25
4768.77
5298.17
5119.69
4615.79
4181.75
4659.71
4700.47
4686.81
4648.82
4173.11
3234.26
3026.04
2726.4
4332.72
3870.83
3720.71
1192.94
1561.59
2947.38
2409.13
2387.16
2582.38
2472.42
2971.37
4896.95
5257.26
5316.2
4873.92
5065.72
4633.13
2458.14
1953.49
518.751
2766.16
3782.65
3401.32
2966
1687.93
1686.97
2280.15
1974.56
1547.08
2114.26
2581.76
2480.59
3045.71
2370.42
2413.6
2378.67
2364.05
3063.06
3315
2538.83
2503.16
2615.42
2902.79
3112.37
1125.63
1213.21
855.328
2871.87
2856.96
4527.67
4073.66
4096.77
4113.36
4076.33
4526.61
4642.68
4242.99
4209.75
4142.1
4199.33
4616.28
2934.49
2904.57
931.628
927.549
2024.69
1724.31
4158.13
3095.82
3365.49
3899.98
4359.17
3862.44
3576.63
1483.81
632.448
554.695
3031.15
2920.59
3074.28
2068.36
2680.29
2875.44
3482.07
3184.87
3162.58
3160.23
3177.13
3454.83
648.309
614.095
2783.76
924.14
941.356
921.098
915.474
2725.57
2928.09
985.447
1001.81
953.744
970.813
2898.87
483.09
480.957
449.259
467.223
1655.44
1025.54
1054.99
900.976
829.236
545.948
484.816
927.354
1599.41
1513.71
1654.42
991.243
1299.2
2468.98
1818.52
1533.48
1382.2
3778.11
3672.56
3443.23
3663.07
847.741
750.041
596.156
888.139
860.536
1008
562.262
529.154
475.112
757.852
784.825
214.988
313.262
3974.14
2716.88
2814.36
567.605
2734.41
3684.26
3653.11
2764.44
2478.45
2769.15
2770.16