/*--------------------------------*- C++ -*----------------------------------*\
  =========                 |
  \\      /  F ield         | OpenFOAM: The Open Source CFD Toolbox
   \\    /   O peration     | Website:  https://openfoam.org
    \\  /    A nd           | Version:  dev
     \\/     M anipulation  |
\*---------------------------------------------------------------------------*/
FoamFile
{
    format      ascii;
    class       volScalarField;
    location    "100";
    object      yPlus;
}
// * * * * * * * * * * * * * * * * * * * * * * * * * * * * * * * * * * * * * //

dimensions      [0 0 0 0 0 0 0];

internalField   uniform 0;

boundaryField
{
    inlet
    {
        type            calculated;
        value           uniform 0;
    }
    outlet
    {
        type            calculated;
        value           uniform 0;
    }
    ground
    {
        type            calculated;
        value           nonuniform List<scalar> 
5358
(
44566.7
44567.8
44567.9
44568
44568
44568.2
44568.3
44568.5
44568.8
44568.9
44568.8
44568.6
44568.4
44568
44567.8
44567.6
44567.5
44567.4
44567.2
44567.2
44567.6
44567.6
44567.5
44567.6
44567.6
44567.6
44566.4
44566.6
44566.7
44566.6
44566.5
44566.4
44566.4
44565.3
48111.1
48109.7
48109.6
48109.5
48109.3
48109.2
48108.5
48109.2
48108.7
48108.4
48108.1
48107.7
48106.9
48106.4
48106.4
48106
48105.5
48105.3
48105.9
48106
48106
48106.3
48106.9
48106.4
48107.1
48107.6
48106.9
48107.8
48107.7
48107.9
48108.1
48108.3
48108.4
48109.6
50579.3
50577.8
50577.8
50577.8
50577.7
50577.4
50577.6
50578.4
50578.2
50578.2
50578.4
50578.6
50578.9
50579.2
50579.2
50579
50579.2
50579.1
50578.8
50578.4
50578.2
50578.1
50578.1
50577.2
50577.4
50578.3
50576.8
50577.1
50576.7
50577
50577.2
50577.3
50577.2
50579
51870.7
51868
51867.5
51867.8
51867.9
51867.5
51868.3
51868.2
51868.2
51868.4
51868.3
51868.7
51869.1
51868.8
51868.6
51868.2
51867.7
51867.6
51867.9
51867.6
51867.6
51868.2
51868.5
51868.6
51868.5
51868.9
51868.1
51868.5
51867
51868.1
51867.7
51867.8
51868.1
51870.8
52384.4
52380.8
52378.5
52378.2
52378.1
52376.8
52376.8
52374.9
52374.1
52372.2
52370
52366.3
52363.5
52361.2
52360.5
52358.9
52356.7
52357
52358.4
52361.7
52364.4
52366.2
52368.1
52370.2
52372.6
52374
52374.8
52376.9
52377.2
52378.9
52378
52378.7
52380.6
52383.8
52438.4
52434.6
52429.8
52427.8
52427.5
52424.1
52420.5
52415.3
52410
52402.5
52395.1
52386.5
52376.9
52366.8
52361.5
52356.4
52353
52355.3
52359.9
52367
52375.9
52384.2
52391.8
52399.2
52405.3
52410.9
52415.1
52419.4
52423
52426
52426.8
52427.9
52432.4
52436.1
52232.9
52227.9
52221.3
52216.4
52213.5
52206.8
52198.5
52188
52176
52161.4
52142.8
52119
52095.3
52071.5
52054.8
52043.5
52038.2
52044.7
52057.3
52076.6
52097.3
52115
52132
52147.4
52162.7
52175.3
52185.4
52195
52203.2
52208.9
52212.7
52216
52222.9
52226.4
51888.8
51884
51874.6
51865.5
51858.3
51847.8
51832.9
51814
51789.9
51759.7
51724.9
51684.9
51633.5
51579.1
51538.8
51516.3
51512
51527
51554
51590.3
51631.2
51670
51705
51736.2
51764
51788.2
51808.8
51825.4
51839.8
51849.8
51856.3
51863.5
51873
51877.7
51480.1
51474.4
51461.5
51448.8
51435.5
51419.4
51396.6
51365.8
51329.3
51283.2
51219.8
51137.6
51059.4
50988.7
50931.4
50899
50893.9
50913.8
50951.2
50998.4
51050.2
51112.1
51172.8
51228.6
51276.6
51318.6
51352.5
51380.5
51403.9
51420.5
51431.1
51443.6
51455.5
51461.8
51050
51042.5
51028.1
51009.9
50990.1
50964.4
50933.2
50889
50830.6
50757.2
50678.4
50583
50471.8
50359.8
50264.8
50210.9
50202.2
50229.3
50290
50364.2
50443.5
50525.1
50601.2
50668.5
50737.7
50804.8
50864.6
50908.3
50940.2
50964.2
50981.4
50999.5
51014.5
51022.2
50623.5
50614.6
50598.6
50575.8
50548.8
50513.2
50466.9
50409.4
50341.9
50271.6
50184.1
50065.8
49912.6
49749.3
49598.9
49493.1
49450
49467.9
49561.3
49673.8
49797.3
49917.2
50025.2
50119
50201.9
50277.1
50356.1
50424.3
50472.3
50506.4
50533.5
50556.9
50575.3
50584.6
50215.5
50205.7
50187.7
50162.1
50128.2
50083.5
50025.4
49969.5
49908
49844
49787.7
49823.1
23309.8
22970.5
22482.3
22130.1
22158.5
22497
22740.5
22926.7
23103.6
23279.3
23432.9
23558
23656.6
23734.4
49904.6
49959.2
50018
50065.8
50102.2
50131
50153
50163.9
49833.7
49823.8
49804.6
49776.5
49737.6
49686.6
49635.1
49584.3
49534
49510.2
49610.7
50278.3
22493.1
23899.3
10232.8
9754.06
7436.73
11219
21123.7
21169.4
21437.6
21756.7
22012.8
22210
22354.8
22461.8
49533.2
49544.5
49598.6
49652.1
49696.8
49731.1
49756.1
49768.7
49482.2
49472.2
49452.4
49423.4
49381.5
49335.1
49290.9
49244.2
49208.5
49239
49557.3
51056.9
24516.8
31915.7
8828.68
6313.64
8951.62
25139.8
20467.4
21279
21726.6
21955.1
22106.1
22216.8
49231.9
49179.1
49228.2
49277.5
49323.9
49361.9
49389.2
49403.2
49161.9
49151.4
49132.5
49103.3
49061.9
49023.6
48981.6
48934.6
48904.3
48954.6
49397.5
51396.4
25334.2
13295.3
21328.1
10832.6
10121.6
2968.46
11279.1
12641.4
35994.4
23820.3
22096.5
22138.2
22246.4
48970.7
48859
48899.8
48948.2
48989.9
49026.4
49054
49069.3
48871.1
48860.9
48843.5
48815.2
48778.6
48743.5
48698.6
48646
48603
48624.5
49081.8
51330.6
25780.5
7348.72
2691.75
2426.85
5011.58
3295.26
6083.81
4614
3762.72
30272.7
24887.6
22359.4
22179.9
22297.1
48722
48576
48609.3
48656.5
48695.8
48727.1
48751.5
48767.2
48607.3
48598.4
48582.8
48556.3
48523.7
48488.5
48439.4
48377.6
48309
48281.5
48776.2
51425.2
26463.1
7042.28
20249.2
22279.8
15891
31172.1
24554.4
22619.5
22171.3
22306.6
48470.4
48321.3
48349.5
48395.5
48434.9
48461.8
48482.2
48495.1
48367.6
48359.7
48346.4
48322.6
48292.6
48256.2
48203.4
48132
48035.8
47980.2
48631.7
52034.1
27560.2
13908.2
9253.02
15368.9
6982.68
33126.6
25626.2
22849.6
22221.1
22282.5
48207.7
48084.7
48114.1
48159.7
48199.1
48225
48241.6
48252.7
48148.4
48141.2
48130.7
48109.3
48079.2
48041.8
47986.5
47906.6
47783.3
47704
48463.7
52173.5
28197.3
27200.7
1204.84
1858.68
16734.9
21523.8
13066.7
31663.1
26979.1
22728.5
22324.4
22245.6
47935.7
47857.3
47894.7
47943.6
47983.6
48008
48022.8
48033.1
47944.2
47938.7
47929.7
47908.8
47878.4
47840.1
47781.5
47692.2
47537.4
47414.7
48176.5
51819.7
28292.8
26372.9
5033.72
1937.6
1174.18
1625.39
1934.73
28374
28858.8
23657.6
22484
22214.5
47661.1
47634.1
47686.3
47740.3
47782.6
47806.7
47820.6
47830
47752.3
47747.2
47738.1
47718.3
47686.8
47644.2
47580.3
47479.9
47289.1
47096.4
47754.1
51047.4
27964
25922.3
13894.5
1846.75
1651.77
10140.6
18058.4
14836.6
21717.2
29083.6
25146.7
22657.6
22188
47389.6
47412.4
47484.8
47545.2
47591.1
47616.6
47629.4
47639.2
47569.2
47564
47555.2
47536.4
47503.9
47453.3
47381.4
47268.2
47040.2
46752.4
47223.5
50228.8
27142.2
25543.7
17630.4
15981.5
16472.3
17000.2
17487
17914.1
15798.7
17836.6
28050.6
26291.6
22864.7
22147.4
47122.8
47192.6
47285.6
47354.2
47403.8
47432.1
47447
47459
47391.3
47386.5
47377.3
47359
47325.9
47269.8
47185.3
47054.8
46793.6
46408.4
46668
49347.7
56436.4
57504.1
51770.8
44170
41073.7
41883.3
45452.4
49755.3
45537.7
48238.2
63554.9
61150.9
49494.9
46860
46854.5
46975.5
47087.4
47165.7
47220.1
47252.9
47272
47285.8
47217.2
47212.5
47203.3
47184.6
47151.6
47090.9
47000.5
46846.5
46546.8
46077.4
46142
48378.9
54182.9
58060.9
55938.6
50982.9
47743.9
45967.3
47680.8
54301
53103
50959.8
61970.3
59152.8
48263
46430.3
46595.1
46761
46891.2
46979.5
47041.8
47080.4
47102.4
47117.1
47045.3
47040.6
47032.4
47014.3
46979.6
46917.2
46819.1
46649.8
46320.2
45766.4
45650.6
47398
52153.3
57630.4
58089.1
55057.9
52075.5
49774.6
50173.7
56946.9
59458.4
55005.5
61390.7
57904
47372.6
46083.6
46344.3
46547.5
46700.8
46798.9
46867
46910.5
46934.3
46950.5
46874.6
46870.3
46861.7
46843.2
46806.9
46741.8
46636.9
46455.1
46103.6
45476.7
45202.6
46473
50374.9
56319.7
58566
57179.6
54904.7
52599.5
52032.7
58037.9
62876.1
58367.5
61046.2
56685.4
46772
45782.3
46105.5
46351.3
46519.3
46624.7
46698.6
46742.7
46768
46784.8
46706.3
46701.8
46692.5
46672.9
46633.7
46565.6
46456.3
46263.7
45896
45212.8
44804.8
45641.4
48841.8
54521.4
58038.7
58368.2
56930.6
54555.5
53396.2
58341.1
64565.1
60585.9
60554.1
55426.6
46378.5
45522.6
45883.3
46163.3
46342.8
46453.3
46531.2
46576.3
46602.6
46620
46539.2
46535.1
46524.6
46503.1
46462.1
46391.3
46278.9
46078.6
45701.5
44979.4
44463.1
44922.2
47552
52621.6
57063.1
59022
58281.8
55916
54464.4
58479.9
65334
61923
59854.7
54223.7
46091.8
45298.7
45685.3
45981.7
46168.9
46282.9
46364.2
46410.7
46438
46455.2
46376.9
46372.6
46361
46337.7
46295.1
46223.1
46109.1
45904.7
45523.9
44780.1
44179.3
44319
46486.6
50864.3
55991.7
59413.8
59246.3
56966.9
55312
59016.3
65602.3
62496.8
59017.7
53114.6
45861.3
45106.2
45508.4
45810.8
46002.2
46117.7
46199.7
46247.9
46276.7
46293.6
46215.4
46211.1
46198.6
46174
46130.8
46058.5
45944
45740.7
45362.6
44613.7
43950
43829.9
45643.4
49377.7
55073
59780.8
60142.4
57894.4
56090.6
59485.9
65564.5
62533
58151
52117.3
45658.4
44939.5
45347.4
45646.2
45837.6
45952.9
46035.3
46083.9
46113.1
46130.1
46068
46063.8
46050.7
46025.5
45982.2
45911.3
45798.2
45597.6
45225.8
44482.3
43772.4
43439.2
44946
48123.2
54220.5
59828.7
60626.7
58273.4
56478.2
59884.9
64916
61997.3
57199.8
51219.1
45482.7
44807.2
45213.2
45504.6
45692.4
45805.6
45886
45935
45964.4
45980.6
45913.5
45909.8
45896.9
45872
45829.7
45761.5
45652.5
45458.8
45100
44375.4
43640.9
43152
44462.8
47264.3
53779
60585.2
62305
60042.4
58120
61208.8
65062.6
61756.4
56450.1
50426.1
45301.3
44682.7
45080.3
45358.7
45539.3
45648.5
45726.9
45774.8
45804.3
45819.3
9845.28
9103.58
6584.44
15668.3
14947.2
8835
16396.3
9040.81
3228.35
19175.8
1720.25
7267.06
10393.7
1386.65
967.085
1766.97
3343.34
22784.7
4963.95
1580.99
12120.8
1768.5
3948.96
21060.6
16593.8
1839.92
2567.85
4101.32
5943.96
5935.18
18992.8
2889.76
6469.88
2693.24
6377.17
17002.3
3048.9
6449.45
17898.9
22265.2
7456.7
2486.84
15321.3
35930.1
16990.1
13728.3
371.235
927.99
9866.31
645.199
7069.89
8701.88
8060.89
15577.6
7443.1
1378.18
14582.2
367.801
2388.2
2917.47
1290.44
4034.18
14032.7
12468.8
1231.83
196.415
1207.2
1150.25
227.636
364.287
7462.95
8123.33
6391.97
7262.47
11480.8
19868.7
6119.31
419.947
17399.2
7021.03
329.389
17343.1
17316.8
4297.68
7201.87
7151.36
11997.3
14263.3
801.009
7071.32
12244.2
16201
14161.1
3988.92
3733.13
22050.5
10084.6
21690.7
22282.3
9897.41
11320.5
13150.5
5041.89
21471.1
12734.2
10350.6
21091
21088.7
11856.1
19137.4
33536.4
13550.3
401.411
7083.81
4219.68
3067.18
724.061
5509.67
7976.09
8730.87
8785.66
2235.05
7793.25
1516.26
21367.5
26076.7
19847.3
20845.1
35237.3
25480.6
13053.6
13546.5
25557.6
10481.2
1124.87
5396.28
12029.8
7092.54
5756.71
1252.96
3240.81
568.421
11798
3526.23
12242.9
8974.94
27922
28590.7
33842
13860.3
14508
26073.9
6915.89
13768.6
4362.3
3612.77
13154.9
37601.1
16210.5
3613.78
11130.4
12145.9
4968.36
6104.04
5884.34
14759.2
28838
13695
14733
15097.9
26942
6737.58
1072.43
1767.97
9050.1
8892.89
22277.1
2713.06
2734.64
9014.02
3246.99
2312.95
5547.64
7331.38
1272.14
15528.4
5714.07
8352
3864.86
28260.3
10177.6
8806.79
6870.03
2019.39
1849.77
2029.35
2247.8
5867.38
16791
7726.71
6493.74
3297.56
3515.63
26705.7
810.596
19224.7
3371.01
2262.26
18379
3028.58
3350.71
26970.8
9810.16
3251.84
5131.71
5024.31
4458.58
4619.01
10970.4
1810.71
1331.98
6775.93
6076.43
505.756
2566.91
2022.25
2982.6
2755.57
2649.97
5476.96
15622.4
15550.9
3575.76
7406.81
8615.52
3497.66
10334.5
9956.97
5299.39
12576.4
8653.13
5730.79
9949.02
6732.56
4031.39
905.157
404.037
14770.8
869.257
1392.52
7667.44
8660.41
16877.9
7668.67
1197.73
7863.96
17310.2
9064.8
2445.91
730.182
15839.2
2556
5860.17
12268.3
1484.6
1253.49
1507.34
3154.99
1454.09
9200.81
157.752
11022.9
1294.04
8040.6
1242.47
5771.85
11488.7
1256.94
3222.64
1540.57
6944.47
18700
18145.9
7348.15
6229.47
3531.9
4476.49
2627.07
3183.7
3802.94
1054.33
5322.81
4092.66
3967.22
6748.18
12390.5
4370.07
3385.98
4970.45
2648.93
15923.2
5332.91
3610.35
12318.2
5606.5
3804.27
2400.01
2859
6880.42
3098.94
2990.23
1253.91
2840.35
6656.55
1535.37
8720.8
2429.39
1178.16
5240.9
2190.33
18887.6
1556.91
4375.47
2886.08
8781.01
7392.67
8539.25
2945.21
2430.83
22996.2
8566.03
3341.63
7835.04
7483.67
5324.92
4724.03
3258.09
4051.75
5694.28
3535.14
16378.6
15983.7
5983.25
4061.18
4096.09
4157.94
4078.42
3951.2
17432.3
7582.21
7557.76
8659.76
11823.7
4181.61
2480.44
2232.91
4203.91
868.66
5722.12
6827.27
5984.4
12438.9
10475.3
2053.57
1985.09
7946.81
5210.96
7686.34
18267
3583.41
5934.89
7911.54
9094.73
1722.12
4851.09
11025.1
5653.19
1649.83
681.371
2401.29
813.8
864.078
2301.79
642.518
3981.27
8866.12
1534.07
4951.9
3983.47
4915.36
4389.13
250.746
1830.93
257.625
1496.36
560.861
6283.18
6688.44
6121.42
5713.03
568.465
512.156
5426.38
5251.63
2571.19
2313.75
2275.47
2704.3
7604.41
8042.76
2421.82
13941.3
6908.97
6267.35
6094.64
2843.48
6324.17
6029.74
5226.64
3453.71
2598.03
3575.21
22303.8
21636.4
21840.2
26171
19505
29793.2
10363.5
10704.8
12534
7081.47
7853.64
6864.25
8463.31
6083.37
5829.39
22580
8773.93
3846.11
11250.8
11241.1
10815.3
9531.23
4777.12
2574.84
12933.6
5722
4679.87
5772.27
4689.49
1703.88
415.37
1133.49
1161.12
7518.36
13227.4
11675.1
13885.2
15374.1
7026.51
5599.69
11262.5
11774.9
2528.55
2098.42
2615.35
2070.58
2907.07
2793.2
15419.1
13683.7
14770.8
1068.23
6122.38
7507.56
2785.75
2623.96
3361.08
8163.24
6351.2
2487.66
10871.3
10309.9
11624.6
1781.11
1764.23
8099.48
21112.9
26152.8
4412.38
3954.11
4413.49
916.182
309.462
1379.99
3000.83
2792.99
577.508
2285.19
185.842
1126.5
612.653
646.812
4063.66
8325.18
2081.18
5959.32
7067.61
7121.73
3442.88
1421
20230.4
16207.5
16611.8
16211.2
14908.5
15637
15166.9
15488.5
10041.1
542.347
376.714
8280.04
10117.6
4580.19
7621.3
5747.54
3094.38
2985.55
429.149
690.886
13032
2445.45
14752.6
3081.13
3100.73
3684.8
1567.24
10764.5
11761.6
11729.8
1517.33
256.509
1718.46
2117.08
614.008
1998.01
5215.16
1561.71
20037.5
9331.94
24630.4
1992.14
1186
971.333
2626.4
1905.25
1658.7
4693.54
6619.75
6306.57
5558.53
2519.32
1860.41
719.294
3500.3
6657.03
1490.97
1211.59
2659.26
3045.07
19293.7
19459.3
17751.3
2903.21
7923.05
1691.73
2939.72
1617.7
1335.13
1173.67
2714.26
541.548
1306.48
2288.05
2613.07
795.895
4624.43
2802.49
89.0258
7278.16
6106.73
5928.25
4293.25
4516.06
1713.96
15820.2
13751.3
12686.2
651.561
2495.34
227.791
919.39
2015.71
1058.18
3460.6
3588.31
4438.97
2406.68
1543.31
1266.97
231.905
1956.77
235.17
1459.1
463.113
193.659
490.616
2357.88
2704.75
2165.4
2223.21
495.654
513.911
2009.47
1733.45
658.113
687.356
7560.07
6331.63
6162.15
7389.86
6804.47
7786.13
277.892
548.537
6672.36
6989.72
6424.2
6483.29
6874.47
6986.84
2282
2786.28
8232.31
7569.63
6747.63
8868.31
3522.3
17056.7
7681.52
16544.8
11481.2
13339.3
11317.6
319.927
1869.48
1786.64
9739.65
9565.19
9538.32
9618.82
9648.28
10754.2
5964.34
6510.34
5810.22
17552.5
16471
17187.4
1131.13
1359.89
901.727
974.724
7815.89
5367.47
4344.72
4283.42
402.775
3935.55
240.138
9212.56
15194.2
9342.78
7709.99
2635.67
4184.68
4556.57
10006.5
4365.61
4511.68
10553
15120.9
23957.8
18129.2
15755.8
23280.1
2966.24
9677.68
5133.54
3484.92
8556.98
8822.79
7069.45
12160.5
11725.7
11697.3
2694.07
2782.36
2582.17
2652.68
8044.24
10908.6
19392.8
8617.12
10173.5
7781.35
4513.83
7954.68
3039.82
443.921
535.14
3115.58
5611.5
12446.4
752.482
726.273
3886.64
684.05
813.444
4552.44
361.49
894.454
3008.03
3170.11
2890.9
3032.44
1765.62
1489.63
1003.72
1092.01
367.656
247.844
120.93
230.133
268.058
10406.4
11957.9
18054
4391.66
3714.81
2902.73
3246.3
5450.25
5348.93
2517.86
2608.67
2440.64
2489.53
1347.4
1406.73
2823.52
2638.39
9049.98
3488.04
3594.67
3063.19
3398.03
8967.13
2359.54
10134.5
10340.7
9330.92
9847.29
2405.7
2927.57
10043
10199.4
9446.75
9781.77
2886.09
1596.77
2223.78
6134.38
6014.04
2218.3
7228.96
6489.21
6529.58
6512.24
6301.42
15398
12661.9
7624.43
12175
13214.7
6191.78
8858.11
7135.89
7315.72
6156.78
6594.91
8006.24
2141.78
2002.58
2376.62
2489.75
1795.89
6755.96
6215.42
2027.38
2531.8
2288.58
3275.64
10468.7
11159.5
9627.68
9980.05
3540.77
959.693
3069.09
7129.8
7216.07
2477.96
5904.16
2912.73
7542.4
8093.67
8179.32
7542.64
8046.04
7724.79
4042.41
10818.4
11079.7
8723.57
9563.45
3859.77
1752.67
1705.68
3409.44
3739.38
4466.79
4747.12
3706.46
3767.56
1301.45
1207.39
366.273
454.513
540.375
2503.09
2366.16
2317.29
645.113
311.119
1837.91
552.15
987.311
576.986
602.652
2762.02
982.3
944.787
1023.39
990.641
2678.97
3130.44
1159.84
3778.99
3514.44
781.892
579.256
10108.7
4144.29
4668.5
4117.82
4078.98
9949.77
3083.05
4054.25
1415.18
8563.01
7237.14
7464.6
5813.96
6539.43
8078.53
2936.11
3025.46
9735.11
4988.13
4286.66
638.921
3594.01
1179.75
1184.95
1704.01
3979.73
3445.58
3549.07
3865.18
1718.57
3071.72
3072.39
7952.56
7127.57
7011.2
7464.24
7326.37
8443.36
3298.53
5644.62
3173.41
546.132
3078.42
3018.97
4292.2
4323.86
4321.52
4329.7
3800.68
9878.63
10656.7
7162.71
8511.87
1766.24
3245.93
2587.02
3171.13
3253.36
2705.88
2539.17
2810.97
2757.1
12148.2
12355.1
12453.8
1766.26
234.003
1633.58
2566.51
1064.61
7902.45
7128.77
7551.29
8399.39
1123.92
1934.63
4168.82
4409.87
988.557
3598.87
1874.55
2320.29
3515.74
1478.22
1677.15
1110.51
5692.05
91.0135
225.769
3825.05
145.525
514.834
3164.17
741.217
4131.04
2695.46
780.178
883.767
560.623
720.107
2866.81
1466.86
3319.4
1305.86
1730.83
1376.88
1740.03
326.966
4502.89
125.125
205.017
4575.02
2287.14
933.985
3077.33
1263.23
1800.33
6354.76
6459.38
6814.53
4963.6
5724.59
5239.93
2446.16
4687.7
2987.95
2320.29
8597.29
7809.3
2697.11
421.84
2820
7897.34
817.117
1765.88
1801.85
2544.33
2232.8
2446.24
8280.48
1852.24
2860.91
1798.57
5338.99
7536.09
810.506
854.446
1759.41
7554.74
7199.4
1416.95
931.584
3897.11
268.611
3483.95
2324.03
8168.83
1175.51
2747.73
2879.83
3160.04
5295.69
10907.2
10001.2
10671.8
11080.1
11464.5
4149.02
3717.6
1756.95
8632.78
9315.83
2495.76
2447.64
3626.12
2576.75
4918.35
4905.16
5409.64
2020.39
1853.71
4553.34
1435.67
1488.61
3578.56
302.504
288.361
281.393
297.321
3825.43
261.142
221.376
4320.07
4113.18
309.151
298.739
288.701
313.774
4194.03
4209.36
281.828
279.997
294.637
284.192
4143.15
8325.27
6973.96
6730.8
7223.07
7127.27
8596
4309.01
628.632
4339.49
3918.78
1566.74
4278.2
5993.44
5398.95
1459.48
1847.51
505.542
610.805
1857.39
91.95
2430.36
2035
1689.98
1680.39
1246.65
1754.13
4493.71
4292.66
534.91
2486.52
506.904
1048.13
2193.2
3220.98
3052.48
917.034
3370.12
3313.61
3657.62
2026.31
1529.85
2500.86
4346.19
985.36
1681.15
1589.59
235.27
1945.21
251.751
461.233
476.394
1496.27
2476.55
2247.12
565.683
493.336
2165.09
2313.16
2246.48
2172.98
532.097
2525.17
1055.26
1031.26
1035.12
1059.17
2438.72
692.813
676.412
2457.51
840.214
531.135
932.972
876.559
2652.26
561.064
572.235
3220.57
3267.31
5843.65
5277.05
7248.49
6557.11
2784.4
2895.1
2643.92
2759.84
423.16
1224.84
5989.01
3525.71
1586.43
2002.35
3249.35
5640.59
6639.52
1901.62
1871.37
2325.31
6786.33
644.091
2194.97
1939.55
1646
1476.68
1838.7
1699.79
1187.55
1126.24
1418.41
1247.96
10175.7
14295.8
13352.1
7736.06
3177.86
8774.27
10147.6
10081.9
10436.1
10687.9
10411
2600.43
2504.63
2880.94
12124.8
4543.88
11446.8
7003.15
6770.8
7205.68
2635.79
2488.22
2928.73
2817.02
3513.64
3649.52
5999.44
6599.56
6740.71
4421.71
4572.71
3780.58
6476.41
6314.43
6953.71
15908.4
17428.2
17118.9
26482.5
29939.6
34678.5
33972.9
33450.1
28021.7
3861.59
10774.6
13650
29409.2
29524.6
31993.5
896.365
896.21
1325.23
2071.1
2105.06
2127.47
30568.9
31014.4
30707.4
2088.66
2288.63
1856.55
1652.76
1076.77
774.089
181.18
349.939
2687.33
2636.57
1839.63
2172.53
2092.41
859.767
394.851
16166.8
14209
14243.9
9558.52
9276.79
8483.37
8994.1
5346.76
6956.06
10031.4
10043.2
9129.89
3335.21
2922.88
2757.44
1591.84
7031.19
7674.26
7317.78
1213.59
1069.83
965.778
375.486
249.663
821.282
1948.78
679.186
1213.51
10686.4
10608.7
11875.1
1698.92
1671.7
1738.46
1279.78
833.301
1805.14
1871.53
1909.8
4242.86
1698.53
4470.75
3623.71
4046
3986.34
6243.23
2083.17
5554.74
3131.83
7524.96
7263.78
6364.09
2159.18
1986.46
2051.59
17534.9
18034.9
17449.5
392.067
812.678
258.242
514.752
10276.9
11721.4
3940.63
673.959
812.864
757.928
8252.29
7403.97
7671.92
11775.2
11681.7
16906.2
1796.43
1905.81
1483.19
407.27
358.626
1229.85
1508.72
1557.82
14006
12509.9
12743.5
11182.5
11941
13355.1
148.289
1620.49
179.04
527.117
673.325
356.747
377.911
466.892
380.352
6493.96
7945.41
6757.99
452.326
456.485
3347.38
3133.97
2095.91
834.391
7044.73
6784.56
6635.83
15499.8
15524
16782.2
13127.6
14136.2
14629.3
3383.03
3890.61
4226.44
3456.67
3329.77
3576.62
12710.5
9458.49
9407.53
11152.8
9713.82
11390.5
9352.63
9385.12
10164.6
634.323
4347.51
4356.62
4120.97
2299.85
2376.65
3016.22
541.679
7480.15
8372.5
9020.75
6903.23
1899.73
9109
9760.35
8950.21
8236.79
2299.49
2706.97
9297.72
2455.07
9477.15
10055.8
8391.01
2319.75
2170.11
2889.09
2936.08
25560.4
18608
19498.8
12516.1
12449.8
13150.1
10567
10684.5
10224.7
1279
6246.59
7628.74
6744.9
6657.77
7725.76
7511.67
7295.45
7840.54
6437.33
2276.7
3227.98
2576.72
2603.21
404.066
512.888
225.499
3706.26
2723.01
2410.6
11871.7
4746.72
12678.9
14085
12872
12686.6
13237.3
13067.1
14292.6
514.319
517.804
416.054
413.166
7053.43
6901.53
6956.93
4055.38
4938.82
5187.46
377.983
10675.7
13564.1
16259.9
5413.37
5472.06
4796.52
5266.72
5428.84
3276.07
14081.8
13034.1
13839
14893.8
13654.8
13433.8
14175.9
13872
15060.8
351.893
392.913
419.456
438.166
6846.31
6169.82
6067.17
986.271
1795.74
2543.44
4008.66
3956.74
3951.86
3935.95
2593.78
3099.09
3987.48
4055.21
3202.06
3774.41
2840.9
2097.05
1838.06
778.474
5847.17
6319.27
6071.88
4933.58
5603.38
5119.75
7488.08
6771.05
7122.35
5826.61
6284.9
7034.6
3363.29
4407.67
4556.77
756.332
275.538
231.83
3370.19
3175.2
3262.91
620.629
2441.98
2423
3539.81
3699.76
3482.45
5094.33
4522.42
4582.62
4422.38
4474.73
5059.96
1784.28
504.389
779.072
779.238
2489.53
2658.81
1678.78
2394.81
6858.69
6460.07
5369.47
799.681
760.233
1237.21
1142.28
5544.41
6241.88
6038.82
9184.94
4095.47
8081.38
3793.18
3529.56
3849.52
1025.71
825.001
1252.91
1459.45
1095.77
1563.03
1704.48
1545.4
6920.61
6620.57
7480.13
877.898
969.271
1179.11
1376.35
7874.67
4826.84
3384.11
2799.65
2839.43
2827.83
2870.22
9132.74
10104.5
10106.1
1664.25
2017.37
3151.8
4879.46
4098.28
4217.27
3980.5
2017.63
6329.13
7437.54
6395.74
604.375
282.196
568.658
571.224
1140.65
1160.07
1642.34
982.061
1077.23
1061.77
1546.4
2534.75
2439.18
3066.54
1388.62
8473.91
9310.35
9886.32
2582.08
1595.57
2765.45
3008.35
6198.42
5630.54
4306.91
6404.19
6542.53
7548.33
1283.76
1349.23
1407.64
1381.21
1024
5751.92
5035.93
4995.27
235.251
222.609
216.901
239.362
11621.3
10318.1
9852.75
768.386
1102.31
1221.66
2143.33
1857.18
2802.41
1652.17
879.724
825.386
1975.69
2318.51
771.741
836.034
1054.21
3086.38
2161.17
2246.75
2562.46
6130.78
6934.49
6192.13
5103.51
4778.36
5566.77
3499.73
4296.94
4904.15
863.066
2973.87
2914.97
3224.57
3000.22
6841.79
3230.34
7874.49
3363.24
3782.57
3390.33
2000.07
2335.24
3539.12
6020.42
5885.11
6542.72
493.989
453.189
4438.51
2011.13
2430.19
3078.12
3082.26
1633.56
1516.38
1423.77
1181.94
6625.14
6494.24
2906.44
2684.38
1894.03
1220.71
7556.88
6955.98
8218.82
7995.35
7593.21
7171.17
7751.98
7698.82
8392.43
3373.07
4184.04
3692.54
3739.37
3922.05
2753.4
767.109
437.12
9402.29
9301.74
8383.25
10201.4
9876.96
9477.29
572.874
581.533
1409.58
1008.71
6317.17
7532.36
8510.63
4566.25
443.941
3562.01
6489.05
7364.05
7071.59
5218.24
3088.43
409.581
6818.55
5658.08
7037.14
4202.36
1667.58
3296.44
4239.1
4635.85
2237.64
6585.9
5981.13
6471.27
4809.04
5179.42
609.729
643.541
2237.27
2464.76
4774.86
5008.68
5808.61
1626.32
2332.46
2277.43
516.608
716.19
235.743
262.916
924.139
1240.94
1041.66
544.236
1709.32
1215.45
1165.6
1079.01
4778
4605.86
4683.22
4806.32
4224.97
4339.4
3756.38
4046.17
4605.44
230.108
1856.3
259.756
902.654
952.475
586.229
520.482
857.213
893.077
783.462
798.422
524.741
832.613
804.678
2142.41
2120.62
3373.23
3479.69
6970.17
6889.73
6962.67
406.495
411.398
336.482
405.112
2967.79
2692.29
2496.56
5678.9
5122.79
5443.74
4691.61
4870.88
5399.85
3660.07
3732.2
3286.24
2425.27
3604.72
3487.62
3591.32
17016.8
15614.9
18409
3558.48
7274.52
1500.94
2542
5627.03
2919.22
10916.7
10586.4
10473.8
4696.74
5577.16
2516.47
3659.25
1881.43
1998.31
1806.14
1820.42
2634.59
2351.24
2276.17
6276.98
6036.59
5976.46
4838.38
5653.78
6074.54
2073.47
1984.03
1888.08
721.403
863.325
710.493
1149.55
979.474
898.84
1095.27
1036.63
1150.86
6984.21
6919.88
6999.91
2406.15
2267.83
2736.9
1851.71
1350.15
1063.75
1928.32
714.565
2827.46
2435.43
2689.18
1924.12
2455.6
1252.97
1942.69
1624.49
2767.73
2014.73
1976.79
1943.66
1995.97
2699.33
275.392
1857.3
1568.14
2395.85
2184.33
2198.48
1777.57
1050.14
1019.4
1098.63
1077.88
1771
394.366
374.201
52.2327
628.218
930.52
899.165
2254.43
169.548
754.098
438.668
1302.92
1195.45
929.111
623.736
634.626
418.825
2017.57
2485.51
1012.93
976.47
424.504
401.791
4714.34
3159.01
9538.46
1694.1
2475.91
827.377
4782.77
4937.51
5130.09
3072.61
2393.76
2398.75
2382.16
2389.22
3029.89
616.34
646.803
3767.44
4279.81
3335.42
3090.88
2406.16
2402.82
2403.47
2406.32
3098.37
3136.77
2978.7
3546.45
2153.27
2122.63
2083.3
2191.2
1524.73
1305.72
1193.64
1339.87
549.394
564.935
479.983
515.613
261.05
154.748
150.917
603.044
204.112
1779.63
1380.14
981.916
1775.88
240.083
646.647
488.018
224.514
878.131
671.961
2059.59
1731.4
1750.39
1524.62
1601.41
1630.27
1985.13
1933.27
1917.23
1249.06
1140.76
1105.68
1031.78
1125.01
1248.82
2118.15
2334.13
2299.27
1768.83
2097.94
1973.87
1094.87
1152.45
1028.36
1052.91
1490.91
1068.63
1121.7
1048.54
1270.31
1162.27
1307.67
1785.55
1989.22
1943.8
1545.41
829.44
2892.38
1964.74
1888.46
2082.2
2011.12
2953.74
3572.8
4036.69
2840.3
2371.17
2115.66
2583.88
1919.94
1191.97
1738.81
1831.35
454.675
1409.86
1305.27
1825.45
1212.73
898.456
1824.18
1554.6
2420.35
414.714
447.19
369.776
1100.89
2311.05
1832.4
1707.3
1884.61
1810.45
2445.56
1774.85
1050.76
728.516
41.7727
46.1756
1593.98
2124.24
2276.75
451.796
441.182
592.064
264.823
310.338
141.271
1582.12
1642.28
774.417
1220.31
839.643
791.131
1307.57
1391.85
1146.68
2251.3
2559.5
2399.32
1913.15
2258.64
1489.46
950.367
989.582
798.053
887.24
1400.6
265.392
1855.8
196.657
461.271
623
610.176
335.851
488.191
350.966
791.406
723.084
77.6545
439.17
732.765
786.804
719.035
601.11
454.483
669.079
678.662
411.445
508.239
656.272
793.437
1358.44
4253.68
1764.35
9380.39
9002.44
7944.3
597.833
1826.01
1064.75
1153.44
1002.87
1014.44
1797.89
1707.97
7525.79
3099.29
2803.56
2569.69
3012.2
2865.8
1243.08
384.479
352.448
391.271
366.48
1338.26
773.874
436.952
683.169
303.816
319.783
801.12
4134.31
4386.47
4388.53
2548.12
2286.8
2295.93
2538.38
793.356
1046.67
1766.81
1221.94
3430.49
2873.52
3528.02
233.355
3204.91
4046.28
2502.32
2629.31
8486.94
8089.33
6691.88
9619.4
9091.03
9392.77
703.928
2971.52
2851.96
671.867
8553.08
1784.37
5897.97
1660.16
1513.69
3276.98
2595.26
2292.5
3800.91
3384.89
3843.38
3069.47
2907.24
4537.47
4244.17
4258.77
4404.13
4034.18
3972.88
4203.71
4114.2
4465.26
3014.71
3048.21
3811.88
2609.99
9890.92
4034.54
3199.72
9586.43
8605.5
7243.03
2724.57
1004.9
1017.5
968.892
989.851
2763.86
2591.33
1051.13
1078.35
1027.68
1037.82
2621.47
9127.12
9106.1
7875.05
7235.13
8344.76
8788.93
3987.33
2446.27
2515.89
3126.98
1946.84
1847.49
1890.96
1915.79
422.956
1021.9
4145.86
4361.69
3793.81
5526.87
5193.71
5346.37
540.97
518.349
497.495
3197.28
2981.85
3748.11
1003.26
657.341
822.569
948.574
3553.61
2606.38
1428.34
3898.84
766.481
871.91
474.528
468.784
3091.25
2510.35
2407.66
2686.84
2553.61
3104.77
2954.6
2363.73
2254.83
2458.74
2331.58
2936.62
440.7
442.211
1545.89
1533.94
1515.3
1701.68
1760.77
1395.29
1361.59
1426.71
1073.51
1353.86
1363.46
943.113
1299.92
1122.02
713.533
1172.55
753.709
110.441
90.9642
293.272
300.519
2688.04
2629.49
3014.96
376.382
402.84
2545.24
2312.56
2301.89
2336.8
2325.57
2577.14
2447.7
2268.72
2271.42
2288.69
2279.53
2466.36
397.768
423.6
1054.21
1386.88
2802.43
2733.14
3561.79
3964.83
3920.07
3941.92
3984.79
3606.02
3195.21
3666.31
3533.35
3847.55
3768.01
3300.92
3990.34
4017.63
2390.68
2487.91
3944.41
3968.63
3965.48
3944.94
3002.46
2890.72
4064.35
4005.88
1707.24
1885.98
2487.41
2681.58
2546.15
1000.55
1832.41
1844.76
5740.16
6068.92
6432.38
666.26
661.445
618.299
663.893
518.806
495.903
634.854
593.441
724.59
716.958
619.64
608.482
728.932
731.67
761.009
718.332
1869.94
1162.4
767.844
1594.53
648.038
2367.99
2655.31
2807.03
2458.43
1807.97
1879.38
1644.33
1729.43
2366.87
4118.68
4197.32
3041.77
3607.14
3980.16
4077.35
583.439
2997.43
3080.54
3230.27
2208.71
2240.34
2141.6
2695.74
2634.29
2813.87
4410.37
4552.21
4241.77
3673.54
3933.52
4101.31
1739.89
1106.45
1105.64
1095.1
1102.07
1722.36
1659.22
410.584
477.427
450.862
550.135
511.195
437.832
829.849
801.557
518.236
2376.79
582.297
458.246
721.821
851.535
704.701
1052.82
973.533
891.287
584.443
592.289
969.578
1090.04
1101.58
1065.09
1078.84
958.932
1011.52
1112.76
1122.53
1103.12
1107.63
1001.52
693.294
371.769
1082.7
1046.21
792.145
743.582
4271.44
4667.76
4556.29
5023.98
4869.18
4434.37
4058.85
4481.5
4531.55
4488.99
4460.99
4042.54
3236.31
3029.41
2727.26
4340.55
3876.92
3725.05
1193.88
1565.22
2946.39
2405.22
2383.41
2581.29
2470.14
2973.25
4787.82
5096.25
5144.91
4714.6
4906.67
4522.62
2163.3
1640.49
505.799
2661.22
3655.71
3286.13
2874.83
1124.52
1091.56
1859.91
1714.15
1560.95
1660.09
1821.87
1863.74
3060.53
2386.56
2414.98
2396.26
2385.43
3061.74
2630.21
2155.98
2384.98
2497.79
2667.3
3092.42
805.075
958.368
679.795
2782.74
2787.4
4292.35
3860.32
3863.21
3919.57
3876.95
4302.37
4376.86
3978.54
3944.62
3898.63
3943.36
4350.51
2836.78
2811.48
765.594
801.148
1843.49
1480.21
3766.33
2773.39
2953.63
5010.52
5282.56
3878.7
4339.72
1800.36
627.025
579.115
3213.82
2868.52
2944.6
2141.26
2757.35
3325.38
3197.6
2843.89
2746.58
2958.3
2896.71
3209.54
616.122
604.907
2671.52
864.848
877.575
866.668
852.528
2545.59
2799.44
916.865
945.687
888.803
899.572
2791.72
527.042
515.859
571.585
551.292
1959.14
1267
1378.08
589.688
588.73
309.121
506.322
942.485
1589.12
1711.75
1805.37
1187.54
1519.94
2834.78
2218.46
1893.1
1266.55
3409.49
3315.26
3154.59
3340.84
1607.06
1890.36
1292.09
1852.59
1968.98
1839.51
1233.76
1114.03
960.825
1495.6
1560.98
221.141
220.782
3512.06
2664.92
2680.78
530.363
2417.14
3255.49
3210.62
2640.3
2142.45
2629.12
2625.43
3441.74
231.382
209.776
1366.9
1308.79
1429.39
619.81
716.54