/*--------------------------------*- C++ -*----------------------------------*\
  =========                 |
  \\      /  F ield         | OpenFOAM: The Open Source CFD Toolbox
   \\    /   O peration     | Website:  https://openfoam.org
    \\  /    A nd           | Version:  dev
     \\/     M anipulation  |
\*---------------------------------------------------------------------------*/
FoamFile
{
    format      ascii;
    class       volScalarField;
    location    "700";
    object      yPlus;
}
// * * * * * * * * * * * * * * * * * * * * * * * * * * * * * * * * * * * * * //

dimensions      [0 0 0 0 0 0 0];

internalField   uniform 0;

boundaryField
{
    inlet
    {
        type            calculated;
        value           uniform 0;
    }
    outlet
    {
        type            calculated;
        value           uniform 0;
    }
    ground
    {
        type            calculated;
        value           nonuniform List<scalar> 
5358
(
44566.7
44567.8
44567.9
44568
44568
44568.2
44568.3
44568.5
44568.8
44568.8
44568.7
44568.5
44568.2
44567.9
44567.6
44567.4
44567.4
44567.3
44567
44567.1
44567.4
44567.5
44567.4
44567.6
44567.6
44567.7
44566.4
44566.6
44566.7
44566.6
44566.5
44566.4
44566.4
44565.3
48110.8
48109.4
48109.3
48109.2
48109
48108.9
48108.2
48108.9
48108.4
48108.1
48107.7
48107.3
48106.5
48106
48106
48105.6
48105.1
48104.9
48105.6
48105.6
48105.6
48105.9
48106.5
48106.1
48106.8
48107.3
48106.7
48107.6
48107.5
48107.7
48107.8
48108
48108.1
48109.3
50579
50577.5
50577.4
50577.3
50577.3
50577
50577.3
50578
50577.8
50577.8
50577.9
50578.1
50578.4
50578.6
50578.6
50578.4
50578.5
50578.4
50578.2
50577.8
50577.6
50577.4
50577.4
50576.5
50576.8
50577.8
50576.2
50576.4
50576
50576.4
50576.5
50576.6
50576.5
50578.3
51870.2
51867.5
51867
51867.3
51867.4
51867
51867.8
51867.7
51867.6
51867.7
51867.6
51868.1
51868.2
51867.7
51867.7
51867.2
51866.7
51866.7
51866.9
51866.5
51866.7
51867.5
51867.7
51867.6
51867.5
51867.9
51867
51867.4
51865.9
51867
51866.6
51866.6
51867
51869.7
52383.5
52379.9
52377.8
52377.4
52377.1
52375.9
52375.9
52373.9
52373.1
52371.1
52368.8
52364.9
52362.2
52360
52358.4
52356.9
52355.1
52355.5
52357.2
52360.9
52363.2
52364.6
52366.5
52368.6
52371.1
52372.5
52373.4
52375.4
52375.8
52377.5
52376.6
52377.3
52379.2
52382.5
52436.9
52433
52428.2
52426.3
52425.9
52422.4
52418.7
52413.4
52408
52400.4
52393
52384.5
52374.3
52364
52358.5
52353.5
52350.7
52353.1
52358.7
52365.3
52373.4
52382.2
52389.6
52396.9
52403.2
52408.9
52413.2
52417.6
52421.3
52424.4
52425.2
52426.3
52431
52434.9
52230.3
52225.2
52218.6
52213.8
52210.8
52203.9
52195.4
52184.9
52172.6
52158
52139
52114.8
52091.7
52068
52049.6
52038.6
52034.7
52041.4
52055.1
52075.3
52094.6
52111
52128.1
52143.8
52159.5
52172.5
52182.9
52192.9
52201.4
52207.3
52211.2
52214.6
52221.8
52225.4
51884.8
51879.9
51870.3
51861.4
51854
51843.2
51828.1
51808.8
51784.4
51754
51719.2
51679.2
51626.7
51572.1
51532.4
51510.5
51507.3
51522.6
51549.9
51586.3
51626.4
51664.7
51699.5
51730.8
51759.1
51784
51805.4
51822.7
51837.8
51848.3
51855
51862.5
51872.4
51877.3
51474.4
51468.6
51455.5
51442.6
51429.3
51412.7
51389.4
51358.2
51321.4
51274.7
51210.4
51127.7
51050.7
50980.4
50924.3
50893
50889.2
50909.6
50947.3
50995.1
51046.1
51101.8
51161.7
51218.5
51268.3
51312
51347.6
51377.1
51401.7
51419.2
51430.3
51443.3
51455.8
51462.4
51042.3
51034.5
51019.8
51001.3
50981.1
50955.2
50923.4
50878.2
50818.9
50745.2
50666.8
50570.3
50459.5
50348.8
50255.6
50203.9
50196.6
50224.8
50285.1
50359.1
50436.8
50514.8
50589.9
50658.1
50724.4
50794
50857.2
50903.4
50937.7
50963.3
50981.2
51000.2
51016.1
51024.2
50613.3
50604.2
50587.8
50564.5
50536.8
50500.6
50453.4
50395.7
50328.2
50256.9
50168.2
50048
49894.6
49732.6
49586.7
49486.4
49441.7
49461.8
49553.7
49665.6
49786.3
49901.3
50007.9
50103.6
50188.3
50267.1
50345.4
50418.1
50469.6
50505.5
50534.3
50559.2
50578.8
50588.6
50202.7
50192.5
50174.1
50147.6
50112.8
50067.2
50008.2
49953.6
49891.2
49825.7
49766.5
49800
23292
22955.2
22470.9
22123.5
22160
22503.6
22741.9
22919.9
23089.3
23257.2
23407.6
23535.5
23639.7
23724
49897.5
49954.6
50014.4
50065.4
50104.7
50135.6
50159.2
50170.6
49818
49807.6
49787.7
49758.7
49718.7
49666.8
49616.4
49565.3
49513.8
49487.6
49581.1
50220.8
22461.9
23851.9
10203.8
9701.37
7462.38
11236.3
21102.4
21130.1
21392.7
21701.7
21950.2
22158.2
22319.4
22441.6
49529.9
49543.1
49599.9
49654
49702.1
49739.1
49765.9
49779
49463.3
49452.7
49432.1
49401.9
49359.2
49314
49269.7
49222.2
49185.7
49215.5
49524.2
50953
24455.4
32406.6
9531.48
7115.61
9535.49
25291.9
21841.7
21100.7
21554.2
21850.8
22047
22186.3
49234.7
49183
49235.4
49287
49334.2
49374.9
49403.8
49418.2
49139.6
49128.3
49108.5
49078.1
49038.4
48999.9
48957.2
48909.7
48880.3
48935.1
49373.8
51319.2
25332.5
13545.8
22208.1
12173.6
12574.2
3393.79
13003
13818.4
36878
23648.4
21877.1
22038.8
22204.9
48985.1
48873.6
48916.2
48966.6
49009.1
49046
49074.8
49090.3
48845.1
48834
48815.5
48786.1
48752.3
48716.2
48670.2
48617.4
48577.8
48611.3
49092.5
51471.5
26175.7
8337.87
2434.72
3828.62
5335.08
3656.42
2522.63
5014.9
3965.59
33021.6
25797.2
22592.3
22122.3
22256.2
48750.1
48607.5
48639
48685.7
48724.7
48755.3
48779.4
48794.8
48577.3
48567.3
48550.4
48523.1
48493.4
48456.3
48405.2
48342.9
48278.8
48269.6
48829.1
51814.4
27324.5
8104.36
27211.2
27718.3
22293.7
41863.8
30707.7
22869.6
22422.5
22316
48502
48368.9
48394.2
48436.5
48473.5
48498.2
48517
48529.5
48333.5
48324.2
48309.3
48284.8
48256.9
48217.4
48161.2
48087.3
47993.4
47955.5
48678.7
52269.9
28209.6
15770.5
13350.6
17290.8
9228.55
34561.2
28974.1
22893.6
22483.1
22395
48237.5
48140.7
48170.6
48210.8
48245.8
48268.1
48282
48291.5
48109.9
48101
48088.4
48065.7
48037
47994.7
47933.7
47847.9
47721.2
47654.3
48468.7
52152.6
28120.4
27323
1409.19
2127.15
19582.6
31150.9
17693
28859.8
25951
21701.8
22395.2
22474.3
47963.8
47911.7
47956.8
48000.8
48035.5
48055.4
48066.5
48075.1
47901.2
47893.9
47882.6
47859.4
47829
47783.6
47716.2
47615.7
47448.2
47326.1
48110
51509.9
27550.7
25617.1
6116.59
2214.59
1320.07
2297.86
2507.02
26417.8
25717.4
21757.1
22835.5
22525.4
47679.7
47680.9
47747.6
47797.8
47834.9
47854.6
47867.1
47875.1
47705
47697.6
47685.6
47662.1
47627.7
47577.3
47500.6
47381.8
47165
46955.8
47603
50523.4
26645
24698.9
16673.8
2300.74
1928.36
7367.79
19392.5
23671.3
32792.4
27729.6
22757.6
23943.6
22528.8
47386.9
47448.9
47540.9
47598.4
47639.6
47664.1
47677.8
47686.9
47517.9
47509.9
47497.4
47473.2
47432.4
47373.6
47285.8
47145.4
46874.2
46550.2
46986.2
49384
25652.2
24099.5
16737.1
13049.3
14303.6
13759.7
17568.3
16120.3
25561.6
34216.8
28903.8
24062.6
25390.6
22468
47094.4
47220.1
47336.9
47404.1
47451.6
47481
47496.2
47506.2
47336.5
47328.3
47314.6
47289.4
47244
47173.7
47070.7
46907.7
46585
46135.6
46323.3
48213.3
55039.5
52284.5
50030.1
44340.8
41044.1
36950.3
32075.2
47658.3
64495.3
74500
64759.4
62597.2
54853.5
47230.5
46828.5
47005.3
47144.4
47218.3
47270.6
47302
47319.2
47329.9
47159.7
47151
47136.2
47109.1
47060
46980.3
46860.8
46668.1
46296.6
45732.6
45689.2
46998.1
53773.5
53054.5
53783.4
52384.4
47644.2
42356.1
39912.2
50393.2
62399.8
69821.6
62680.2
60755.3
53745.7
46888.8
46594.2
46810.2
46959.4
47038.1
47093.1
47126.7
47145.5
47156.2
46986.1
46976.9
46961.7
46933.8
46880.7
46794.9
46660.7
46437.9
46019.4
45352.6
45093.9
45806
52282.6
53441.7
55994.6
56409.3
52249.7
45697.2
43064.3
52777.4
61773.6
66772.2
62110.4
59819.4
52821.3
46625.1
46375
46621.8
46775.7
46860
46917.6
46952.9
46972.2
46984
46814.8
46805.4
46789.1
46759.5
46703.2
46611.1
46464.5
46217.4
45754.7
44999.1
44547.1
44704.8
50737.9
52913.3
56635.8
58628.6
54798.9
47459.5
43747.8
54220.3
61656
64697.9
61756
58918.7
52026.5
46410
46170
46437.3
46593.7
46682.5
46743.5
46780.5
46800.4
46812.7
46647
46636.9
46619.4
46587.6
46527.2
46429.4
46273.7
46005.6
45506.4
44677.6
44055.8
43722
49236.6
51546.4
56278.2
59970
56756.3
49060.7
44907.2
55096
61628.7
63204.8
61202.8
57972.2
51340.6
46226.3
45980.6
46257.6
46415.2
46506.9
46570.6
46609.3
46630.5
46643.5
46481.4
46471.3
46452.3
46417.9
46354.8
46252.2
46089.3
45804.9
45278.2
44392.4
43626
42868.5
47841.1
49727.1
55629.5
60745.3
57862.9
49742.2
45248.6
55553.5
61553.1
62068.1
60460.4
57039.4
50747.7
46065.7
45806.8
46084.7
46240.4
46334.2
46400.5
46440.7
46463.2
46476.4
46321.3
46310.6
46290.2
46253.6
46188.3
46082.6
45914.9
45619.4
45072
44145.8
43258.9
42141.4
46571.8
47885.2
55112.8
61208.9
58360.3
50037.6
45385.9
55742.9
61364.4
61123.2
59625.9
56151.3
50230.9
45922.7
45649
45922.4
46074.1
46168.6
46235
46276.8
46301.2
46314.3
46163
46152
46130.6
46092.3
46025.9
45918.6
45747.6
45447.4
44888.1
43935.4
42951.4
41536.2
45465.6
46307.3
55026.8
61666
58757.9
50285.5
45469.1
55789.3
61164.1
60342.3
58800.5
55341.2
49780.1
45795.9
45507.7
45769.4
45913.9
46007.8
46073.8
46115.8
46140.7
46154.1
46017.8
46006.6
45984.4
45945.2
45878.4
45771.4
45599.4
45297.4
44731.1
43762.3
42701.2
41037.8
44491.5
45006.8
54930.6
61677.5
58675.5
50168.7
45261.4
55563.7
60691.9
59503.3
57905.5
54547.7
49370.4
45686
45387.2
45635.6
45771.3
45863.4
45927.1
45969.3
45994.4
46007.5
45867.6
45856.7
45834.4
45795
45728.9
45623.7
45453.5
45154.6
44590.6
43618.8
42500.4
40656.3
43696.3
44417.6
55708.5
62420.7
59457.5
50605.6
45832.2
55759.1
60557.2
58949.6
57217.2
53892.7
49013
45585.5
45277.6
45507.2
45630.3
45717.7
45778.4
45818.6
45843.2
45855.7
9800.24
9799.65
6565.89
23162.6
16897.6
11157.5
23418.6
9645.69
3666.33
16997.6
1431.15
7882.55
12201.1
1892.5
1228.7
1404.88
2605.8
26198.2
5763.51
906.732
13240.1
1865.57
4125.19
22801.1
13501.1
1886.56
4308.44
4860.8
9579.18
3064.8
26801.9
4340.01
9758.25
3207.37
7372.99
19386.5
3135.1
8814.21
20617.7
28336.2
8417.97
3136.44
21951.2
46580.6
18509.2
16010.5
428.575
1069.84
11714.8
669.4
10042.9
10435.1
9583.84
21486.9
12758
1754.56
19779.8
414.606
2418.87
3800.41
1647.28
5270.94
15051.4
11979.7
1595.63
325.454
2225.01
1604.05
192.109
444.608
7053.37
7074.76
8656
8049.91
11664.5
26882.2
8382.31
486.592
16137.6
6338.83
450.538
14344.6
16267.4
3934.08
8775.17
5769.9
12048.9
16410.9
679.772
8144.85
13919.8
17838.6
16001.6
5381.94
4029.75
22049.4
10074.3
21663.9
22287.6
9905.95
11307
13165.8
5062.75
21459.6
13970
10656.8
21054.4
21151.7
12950
20013.9
34959.9
13913.4
722.029
7654.63
4308.1
2884.54
1296.56
5956.73
9383.13
11159
9506.49
2388.43
8272
1517.39
25342.1
29848.3
24106.4
20925.9
39360.7
29141.6
13165.7
14077.2
25769.1
12093.8
1422.64
4858.73
12203.4
8377.07
4698.48
1975.36
2958.98
317.233
13317.3
3888.97
13481.7
7901.44
27907
26916
31175.6
14814.6
16746.1
26711.5
8253.98
11942.4
3989.44
3867.98
12908
58693.8
25541.1
4430.39
16925.5
18770.3
3731.63
6245.17
4858.14
14307.6
40702.5
20010.3
17030.1
16764.5
27882.4
7867.98
2240.06
2388.87
11988
11332.6
28617.9
2776.64
3440.09
10918.1
3508.58
2772.87
7392.44
9198.51
1972.27
23001.7
8764.37
11485.1
4800.84
29250.5
13907.3
9583.76
7916.3
2779.5
2196.04
3603.09
4059.23
8754.71
22648.6
8749.36
8208.45
4177.02
4338.96
26315.1
1035.62
20839.9
3320.93
2294.78
22691.8
4228.86
3401.12
38398.9
13260.5
4631.43
7354.38
6135.05
4382.15
5920.34
13497.7
2299.71
1719.5
7861.85
6428.98
1048.35
3383.21
1777.54
3840.13
3186.02
2686.6
6329.96
15812.1
18241.9
3109.03
6720.5
7620.42
2604.76
10786.4
10330.8
5263.87
12508.3
8936.06
5867.34
10310.6
7062.85
4165.18
1483.58
853.711
22179.8
1224.69
1821.71
7456.25
8892.76
24207.9
7156.06
1533.74
7507.34
23415.3
9757.89
2662.6
622.546
13567.7
2174.2
5618.95
12162.8
1296.5
1245.27
1652.21
2820.19
1635.06
10378.5
107.639
12262.6
1480.59
9115.66
624.744
2557.73
12921.9
1659.39
3527.51
1490.26
5826.84
16106
14731.7
6383.92
5141.99
3286.02
4057.56
4374.25
2961.72
3381.64
1897.33
6124.23
4334.34
7807.01
3357.76
13448.3
4206.84
4302.92
7364.85
1119.16
24069
7768.58
4456.44
13282.6
5975.28
4155.53
3789.26
1811.8
7787.38
1823.35
1971.69
1984.52
2886.14
7778.79
1529.12
10893.4
2932.44
2043.09
5939.1
2535.54
21595.1
2209.6
5190.43
3675.45
11836.4
9628.13
11393.9
3371.52
2356.09
29027
10614
3629.49
9530.19
8671.73
8227.83
7262.5
5560.71
6310.06
6417.49
5471.3
22725.9
22887.8
9089.14
6044.35
5726.89
6437.5
6153.12
5483.9
21766
8877.15
9401.38
9698.9
14729.5
4757.14
3139.07
2600.17
4716.28
1409.04
6659.38
8533.97
7489.66
15231.3
13403.7
3578.24
2920.3
9401.54
7115.61
9559.76
22911
5296.3
11941.2
13566.7
15055.2
2398.56
7866.43
14961.1
8099.46
2249.52
755.885
2317.79
905.699
1120.17
2148.36
603.976
3531.08
12349.7
1283.67
6528.72
4275.79
5734.82
4621.29
482.854
2338.14
491.76
1906.84
571.491
6007.09
8395.71
5839.78
5528.96
573.04
1023.08
5569.91
6128.5
2521.58
2026.08
2514.46
3225.58
7328.11
7263.94
2695.92
13724
8229.89
3995.58
4026.6
1240.55
3886.81
8188.16
7695.83
4408.55
3466.45
4394.09
22292.9
21630.2
21832.1
26196.2
20412.6
29984.6
10307.6
10730.9
13060.3
7085.96
9052.77
7931.79
9102.11
6077.31
5807.73
26660.4
10148.6
3406.28
12233.8
12398.9
12312
11326.4
5421.4
2840.33
14209.8
6094.93
5026.13
5292.89
4524.11
1536.97
688.48
1693.88
1682.81
6795.38
18141.1
17026.5
6855.79
8253.05
2779.88
5813.82
15523.9
14653.8
3478.79
3096.7
3690.6
2594.22
4457.41
4348.92
17829.2
15987.1
17960.1
1207.41
8442.56
10107.1
3845.96
3626.9
4028.87
7698.12
6163.35
3075.56
15186.4
12484.1
15593
2871.03
2673.33
9445.21
22183.6
25105.5
3563.32
4834.55
5521.98
1056.06
336.972
1404.64
3435.1
3243.11
1158.64
3200.86
98.6711
1395.5
504.526
482.536
4223.59
9034.39
2511.74
6303.32
6429.27
7781.44
2872.15
1128.02
15729.6
14248.4
17888.4
21743.9
21283.5
17363.2
15943.8
16250.6
9999.47
549.639
388.096
8628.93
10602.7
4565.67
7605.79
5716.74
3130.65
3007.68
443.227
703.866
15378.4
3717.41
20086
3103.95
3134.7
4181.04
1262.23
11835.2
11948.4
12035.5
1761.38
432.828
1622.71
1735.22
705.784
942.755
2638.58
1932.37
19856
9161.8
27054.6
2035.14
1631.29
756.681
3999.68
2383.16
2778.87
9752.52
3150.64
4057.85
3559.95
3526.82
2845.89
1272.65
3680.83
8745.61
1847.1
1486.47
3342.7
3830.93
23157.6
24307.5
21136.3
3571.39
9379.28
2109.13
4563.68
2503.02
1503.54
1639.64
3676.68
717.918
1575.37
2690.24
3113.83
1864.12
6476.6
4785.16
123.188
9352.37
8220.77
9435.72
5140.21
5464.37
1951.39
21249.8
19159.5
17360.5
738.854
2538.55
232.1
1075.32
1676.49
1328.58
3801.84
4309.13
5691.98
3141.09
2113.06
1840.89
447.608
2680.03
411.225
2162.07
330.014
227.786
429.52
2798.54
3887.71
2186.58
2242.63
496.199
792.851
2635.75
2215.88
473.96
444.507
6220.59
5519.51
6356.27
7610.56
4683.09
5126.38
222.386
547.798
8908.89
8475.29
7900.48
7237.34
8012.79
8727.62
2121.14
2049.01
6369.03
6566.95
6090.77
8283.98
4098.82
17054.6
7777.68
17303.7
10971.9
9058.1
9031.02
292.125
3069.99
2930.22
9727.59
9564.06
9540.14
9620.53
9652.17
10742.5
5977.3
6518.26
5815.03
18450
17085.4
17686.1
1617.16
2105.44
1383.96
1352.12
8298.78
6208.49
5258.37
4191.37
552.859
3812.51
365.501
9902.15
16791.6
10149.8
8835.32
2814.92
4444.51
4745.64
10296.4
4579.7
4709.83
12709.6
20189.5
28249.4
22641.2
20144.9
26648.1
4024.33
12067.8
5017.51
3747.72
7477.02
8846.89
6187.43
12412.7
12455.7
12268.8
2980.69
2967.28
2950.63
2968.98
8291.33
12357.7
22010.1
8130.58
11171
7822.71
4981.1
8044.99
2965.66
188.707
218.813
3539.99
6342.94
14125.3
842.64
863.317
4353.03
754.367
837.043
4810.12
394.883
922.783
3461
3542.56
3328.46
3496.08
1790.05
1320.31
1518.95
1693.68
640.097
368.266
127.874
240.342
366.526
22303.4
24067
27250.2
6048.44
5867.74
3863.61
2431.72
5675.8
5464.24
3178.04
3247.15
3111.45
3155.73
2887.19
2416.6
3677.72
3572.2
11824.3
4521.24
4685.15
3975.13
4406.47
11597.5
2996.68
11764.9
11717.9
11448.3
11672.6
3070.29
3149.41
11810.8
12037.1
11192.2
11487.6
3034.51
2656.47
3243.49
7687.83
7904.22
3343.08
8801.18
8207.7
8238.9
9804.47
9558.11
17892.8
13907.2
8696.44
14196.2
15320.3
7239.69
9692.42
8365.61
8413.29
7620.03
7917.27
8915
2761.86
2483.22
4573.31
5003.03
2429.34
9444.61
8838.86
3773.68
3503.62
3241.11
4267.37
12196.5
13040.4
10958.7
11515.6
4585.15
1201.59
3054.48
6619.54
6147.02
3209.99
6966.89
2923.32
9093.85
9416.96
10896.7
7443.67
8309.36
8406.83
5807.2
15802.3
15443.7
13057.4
13908.2
5424.22
2606.06
2408.91
4577.2
5040.26
4022.28
6378.74
5743.76
5338.32
1558.93
1648.43
414.175
360.002
1140.41
2849.12
3022.73
3196.43
355.876
163.211
1629.61
343.34
596.021
520.663
510.255
3006.82
968.311
1020.8
872.386
945.809
2863.1
2789.27
1051.9
2747.42
2733.8
811.804
588.304
10519.1
4290.54
4864.5
4233.44
4215.36
10338.4
3082.3
4047.31
1406.16
8898.62
7490.1
7709.45
5799.65
6728.55
8468.92
2940.13
3024.27
10180.8
5095.45
4394.85
651.963
3720.64
1734.69
1743.48
1735.86
6233.29
6208.57
5740.86
5986.04
2015.71
3049.89
3084.7
8007.74
7262.94
7027.67
7683.74
7517.46
8616.06
4103.32
6462.09
3170.52
616.748
5475.74
5448.85
4541.19
4542.33
4587.81
4585.79
4270.75
8350.22
9536.45
5792.28
6893.98
1431.06
3275.6
2058.37
3522.37
3460.05
2810.82
2743.27
2950.17
2865.9
12040.9
12096
12303
1722.03
466.701
1655.18
2192.69
1194.69
8878.05
8150.74
8333.04
9465.75
576.763
1038
4497.01
2388.3
537.806
4075.32
2088.69
2727.31
4018.26
1913
1764.41
811.861
5849.19
97.0095
228.58
3368.83
167.251
840.795
3248.92
721.966
3438.27
3527.88
1079.63
1218.62
872.824
916.969
2482.79
1276.7
2711.35
971.577
1585.29
1308.55
1679.56
252.565
5082.23
116.216
158.455
4600.09
1574.06
1464.99
8835.84
2697.57
2136.18
4614.78
4486.89
3256.91
4018.4
5085.02
5311.9
3184.43
5874.79
4619.21
2162.66
11288.9
10822.2
4072.32
760.831
4383.78
6604.98
615.243
815.175
808.633
3148.23
2736.05
3108.45
10165.8
2536.1
3720.71
2749.32
7760.81
9322.84
1014.08
1580.03
2678.33
8383.53
7927.38
1799.19
1279.92
4486.58
335.266
4548.35
2983.81
11256.3
1425.28
3515.38
4026.3
4565.79
5041.67
12100.9
11311.6
11681.7
12057.8
11481.6
4316.79
3992.88
2116.36
10153
10978.7
2677.74
2621.52
4196.61
2772.5
7749.32
7747.38
8398.19
3112.17
2934.23
7395.39
2361.62
2509.39
5748.12
375.402
397.447
380.412
376.896
6041.84
420.847
351.539
5191.49
6006.8
403.312
398.089
377.348
401.777
5989.44
6484.5
384.928
382.42
395.409
386.125
6306.5
10047.5
8977.18
8880.55
8598.07
8730.76
10016.6
5032.52
884.807
5167.51
4354.28
1815.81
4791.53
7349.23
6969.92
1985.57
3133.62
585.523
665.464
2985.09
128.307
2666.77
2465.38
2770.26
3844.11
2806.76
1946.42
5998.93
6124.66
589.167
2471.3
615.882
1294.08
1957.64
2850.63
3246.69
1141.85
4111.64
3823.72
2943.33
1786.5
1404.22
3188.51
4977.31
1188.82
2347.5
2171.41
452.801
2596.57
456.458
343.341
344.681
2029.19
2092.44
2061.71
498.471
527.791
2257.37
2274.67
3090.42
2985.38
887.616
2359.3
767.069
846.654
642.152
739.53
2194.15
433.274
384.972
3024.21
1000.17
531.265
1028.39
1045.05
3382.91
555.664
522.439
2420.86
2687.05
5976.21
5414.25
7248.33
6608.75
3330.33
3392.01
3264.75
3334.78
376.897
1110.55
4142.56
2218
1165.69
1215.28
2414.11
4402.09
3496.3
1335.08
1458.23
1620.02
3690.33
574.229
3193.12
3101.48
2203.79
2015.72
2606.72
2281.73
1837.79
1784.01
1971.51
1866.05
10140.1
14748.9
13540.7
7728.79
3174.42
9344.22
10652.7
10606.4
13042.9
12771.8
12044.3
2873.75
2771.64
3294.8
13892.1
5161.88
12912
8154.31
8078.37
8368.82
2499.66
2383.4
2608.1
3119.35
5605.6
5309.53
2369.38
2485.41
2394.57
4414.7
5678.45
5261.97
7756.99
7642.44
8032.53
21889.8
22626.9
22992.5
36778
34088
37431.6
35104.2
33028.4
28264.6
4328.45
11964
15029.9
31446.2
29244.3
32263.6
1364.01
1655.64
1574.52
2534.83
2729.55
2523.11
26908.2
25353.2
26075.9
2959.02
2981.14
2407.41
2112.04
1647.87
1041.9
141.583
325.012
2454.17
2541.05
2408.82
2812.73
2470.32
754.724
386.189
27870.7
29204.9
24736.4
10135
9967.04
9497.56
11341.5
10004.6
9283.06
10585.9
10639.6
9765.21
3771.51
3208.33
3030.74
1306.39
7158.93
8117.22
8265.85
1824.53
1122.43
1151.69
624.333
566.828
1071.26
1591.58
369.884
759.133
11569.4
11677.1
13141.3
1889.62
1554.35
1592.46
1331.1
779.037
1634.15
1680.12
1938.97
4763.96
1182.14
4627.11
4351.62
4253.36
4995
9541.09
3324.85
8590.49
4031.41
7720.94
7438.57
6860.1
2607.04
2434.78
2613.59
19599.5
21482.8
20141.6
550.832
980.39
399.447
855.235
12576.3
13896
4768.24
973.675
1734.92
874.037
10500.3
8392.32
8159.47
17869.6
17053.1
22127.7
1935.09
1971.43
1843.22
470.137
333.02
1547.81
1729.76
1802.9
13907.9
14552.2
15943.9
11687.7
13065.7
12772.7
257.134
2258.07
298.092
611.736
717.108
355.422
507.272
636.073
483.276
7725.71
9258.17
9803.88
506.202
424.669
2620
2589.57
2277.02
770.629
8182.9
7944.42
7854.8
17413
18203.9
18659.6
17040
17810.6
16761.4
4526.26
5152.06
5709.03
4087.29
4205.78
4146.65
14004.2
9409.67
9356.04
11142.3
9707.7
12613.1
9301.77
9347.78
11080.2
939.242
4378.95
4272.13
4144.25
2333.12
2317.64
2875.57
992.259
8718.96
9496.3
10165.6
8197.03
1891.77
11228.6
10399.4
9590.03
8994.27
2382.98
2812.43
10003.9
2627.47
9895.67
10544.3
8926.68
2353.33
2209.42
2937.62
2983.94
29704
23444.6
24083.7
12817.5
12579.3
13303.8
12327.8
12739.1
12096.5
1778.47
5502.82
6601.36
5935.22
7443.84
8086.19
8315.4
6402.7
7558.15
5810.87
2549.78
2999.77
2307.42
2247.46
178.866
215.487
256.359
4090.87
2914.53
2536.16
12837.5
5059.69
13971.2
15598.7
13481.7
13144.9
14198.8
13853.9
16264.1
605.03
592.851
497.864
481.064
8352.23
8056.28
7989.21
3806.35
4612.26
4710.42
319.004
19796.8
19389.6
14943.8
4983.31
5338.12
4119.16
5565.49
5759.81
2250.78
17863.7
17907.1
19943.5
17090.6
14830
14533.6
15285.2
15042.5
16996.5
352.404
395.276
434.795
434.305
7955.16
7517.53
7415.48
2529.04
2332.88
2833.85
4409.11
4178.09
4886.45
4732.63
3254.51
3335.33
4978.46
5119.05
4210.65
4253.8
2638.12
3223.09
2827.19
1196.87
9036.95
9588.61
9146.23
5926
6676.09
6170.75
8495.01
8474.59
8700.25
8103.2
8229.47
8281.13
4320.47
5348.95
5502.97
937.736
436.614
395.95
3290.31
3148.67
3229.21
781.915
3043.7
2450.06
5425.27
5604.48
4882.35
6959.48
6769.56
7138.77
6006.17
6387.31
6548.35
2240.59
1070.47
1438.38
1434.18
3341.94
3452.75
1157.69
1586.48
6638.31
6907.2
6735.13
759.461
794.194
682.958
644.416
5513.62
6219.15
6013.39
9621.53
4219.33
8504.19
3939.13
3679.97
3986.44
1603.74
1445.5
1446.99
1760.96
1713.26
2215.24
2413.79
2021.54
6786.4
7205.52
7026.75
992.462
1261.52
1615.41
1906.38
7207.06
5925.81
4355.62
2864.79
2898.71
2950.33
2979.8
9796.23
10723.3
10741.6
1843.5
2217.45
3462.91
4175.94
3546.97
4296.5
4110.04
1706.96
5426.94
6944.67
6202.25
498.241
194.718
642.127
616.699
1537.84
1108.14
1497.09
1439.89
1525.64
1327.05
1685.88
2136.85
2003.26
2698.3
1610.25
9575.04
10432.2
11121.3
2923.9
1888.81
2923.6
3228.44
7472.65
6914.3
5744.46
7303.26
7698.34
8682.37
559.663
584.578
1619.67
1275.27
600.171
2652.05
2333.9
2609.78
316.009
251.826
174.148
149.631
12963.9
11474.9
11046.8
1268.31
1341.13
1782.67
2222.72
1887.82
3036.04
1258.41
979.995
1156.88
2077
2109.74
683.338
742.753
1778.2
4137.32
3029.25
1037.09
1465.6
8640.16
9995.39
9336.03
5236.46
5040.72
5831.74
4751.34
4347.4
4662.92
1453.51
4694.69
2198.24
2136.6
1656.78
7746.65
3009.09
7718.22
1709.57
1602.77
1756.09
1399.2
1172.58
2292.81
7336.79
7102.48
7627.95
571.381
460.418
5447.11
2424.94
2888.96
3759.14
3730.37
1438.14
1540.4
2151.22
1379.63
7298.52
7235.38
3060.48
2785.51
2319.91
1759.61
10549.8
9129.3
10539.6
10584.1
9740.85
8840.93
10903.7
10458.9
11146.9
3734.09
4671.92
4375.66
3740.97
3874.09
2777.43
908.064
565.605
11521.5
10926.2
9956.29
12072.7
11546.9
11581.4
564.426
575.603
1512.52
1141.23
6506.06
7982.79
9606.57
5018.75
618.817
4113.58
9690.72
10682.3
10336.6
6867.52
4417.1
544.433
8420.39
7259.03
8715.68
4797.78
2044.73
4206.81
4750.08
5291.31
2658.27
7979.37
7191
7791.05
6366.05
7165.34
611.358
670.919
2568.32
2635.88
7049.75
6874.83
8014.66
2041.21
2569.15
2821.12
559.756
820.883
417.729
454.41
1188.89
1144.64
998.905
634.967
1418.55
1065.38
1126.74
1043.33
6152.49
5804.51
5922.46
5360.32
5288.68
5639.23
4515.27
4932.76
4985.83
454.46
2395.04
490.713
887.715
842.584
556.658
559.672
903.091
914.94
1395.98
1354.24
992.359
685.021
722.184
2200.85
2161.59
3474.81
3513.09
8021.52
7988.35
8186.1
466.453
466.204
323.656
460.27
1436.45
1502.68
1335.05
8134.15
7946.57
8041.69
7469.35
7756.09
7964.03
4644.75
4822.84
4305.59
3059.24
4279.12
4341.54
4489.32
17522
15975.3
19146.1
3564.4
7274.3
1506.34
2385.11
5449.52
2246.62
10414.4
11131.2
9948.89
5377.29
6669.99
2739.65
4093.32
2022.01
2140.92
1835.5
1930.21
2970.37
2577.16
2456.06
6731.63
6579.84
6506.49
5223.25
6153.89
6542.86
1846.52
1817.38
1702.22
1079.98
1255.48
1017.93
1694.33
1733.86
1726.39
1869.34
1812.33
1698.32
2419.25
2975.9
3208.91
3374.59
3254.3
3749.94
2538.87
1683.56
1423.35
2458.73
1099.39
4339.35
3802.72
4213.76
3011.55
3824.15
1523.55
2430.76
1944.73
3839.14
2636.59
2688.69
2479.96
2560.85
3748.37
466.453
2102.11
2020
2886.68
3000.07
3127.64
2806.8
1846.26
1883.2
1772.72
1809.76
2741.37
484.742
432.928
54.9562
1304.87
1215.79
1246.78
3192.44
218.332
962.324
406.372
1637.44
1513.68
1202.47
497.88
490.55
402.76
2587.86
2998.65
742.189
763.89
427.5
404.563
4924.53
3376.29
10035.1
2423.98
2664.56
861.73
4778.23
4934.95
5131.82
3109.22
2399.08
2401.5
2387.05
2394.63
3061.91
631.951
661.981
5800.81
6022.91
4304.87
3118.35
2399.05
2391.3
2403.23
2402.79
3130.59
3495.26
3341.85
3982.58
2313.54
2303.97
2212.68
2317.71
1238.92
1099.85
1115.78
1788.05
378.283
403.485
303.999
338.339
643.539
391.932
384.582
885.764
483.47
1607.34
1079.33
750.175
1427.83
175.829
510.565
467.517
152.238
502.085
367.183
943.651
724.569
845.14
1475.61
1515.12
1912.85
2041.65
1722.45
1693.71
1611.18
1762.33
1830.35
994.35
1501.59
1480.49
2733.92
3528.76
3165.48
3532.01
3582.21
2807.75
1485.65
1517.66
1228.05
1337.67
2381.46
1786.67
1107.5
1091.83
1233.97
1091.35
1428.75
2156.29
2598.24
2448.95
1919.66
953.932
3502.68
2419.63
2242.92
2671.59
2574.67
3720.82
4325.36
4918.23
3492.01
2971.19
2613.88
3993.68
2955.54
1203.84
2098.27
2140.39
426.896
1498.16
1298.28
2502.2
1970.47
1365.02
2633.93
2401.04
3249.86
750.762
633.015
549.228
1339.81
2767.02
1762.11
1855.8
2053.37
1894.12
2966.49
2537.36
2258.02
1374.78
70.729
80.4236
1930.88
2113.52
1970.86
543.681
485.478
660.531
318.728
372.532
163.527
1588.89
1649.59
758.315
1232.89
826.847
823.255
1489.88
1602.66
1439.75
2943.69
3373.21
3038.8
2524.62
2958.63
2045.94
1448.32
1482.42
1324.67
1401.48
1962.67
512.531
2597.66
336.088
348.863
723.621
721.117
578.206
696.766
352.967
658.854
933.086
107.999
478.428
804.428
850.889
1058.07
867.063
652.041
464.728
455.008
352.375
481.497
429.929
519.028
1763.11
3774.29
1125.91
9566.83
9145.85
7975.73
575.061
3031.6
1992.67
2028.48
1919.54
1956.94
2985.21
1714.14
7538.91
3110.19
2797.81
2548
3022.46
2865.27
1745.18
511.557
496.779
608.663
450.761
1873.92
1150.45
607.344
985.104
434.574
450.383
1169.74
4009.45
4259.01
4357.98
2525.43
2295.5
2307.03
2489.58
931.975
1160.78
1831.66
1331.84
3287.56
2800.05
3422.74
539.802
3536.22
4438.93
2507.23
2818.33
9305.84
8945.53
7421.6
10570.7
10057.3
10247.1
538.868
3070.28
3075.94
500.556
10196.2
1770.28
6238.45
1729.1
1568.17
3492.69
2762.47
2441.11
4049.66
3603.69
4089.99
3114.29
2947.12
4715.26
4372.2
4406.55
4611.03
4215.5
4159.09
4368.32
4290.72
4667.05
3063.01
3092.63
4480.71
2994.17
12235
4841.68
3014.02
8557.66
7452.2
6305.83
2982.57
1045.71
1056.82
1017.19
1033.14
2980.33
2946.72
1086.78
1109.76
1065.82
1074.93
2959.01
9901.19
10081.7
8254.58
7006.11
8589.17
9331.63
4208.96
2383.47
2368.22
3006.59
1840.42
1801.76
1747.27
1803.06
185.778
430.993
4701.77
4852.54
4261.63
6183.9
5793.45
6094.17
582.689
668.522
516.476
3612.23
3297.8
4169.17
1104.8
723.213
892.587
1031.32
2428.33
2858.94
1477.69
3316.09
828.467
917.596
579.065
551.516
3505.36
3044.34
2979.4
3159.6
3080.83
3498.54
3413.68
2825.55
2702.87
2971.86
2839.61
3406.26
531.277
525.592
1364.48
1309.18
1510.83
1604.07
1747.84
1212.44
1251.64
1361.81
1610.15
1864.66
1982.82
1750.93
1841.27
1668.22
879.777
1193.92
1012.86
351.945
331.957
323.37
340.222
2589.06
2668.93
2666.8
375.264
411.628
3202.1
2710.9
2717.03
2691.6
2698.62
3220.9
3115.37
2725.58
2745.27
2721.44
2725.99
3133.04
396.58
419.008
2694.12
2341.43
3698.16
3650.73
4619.98
5087.71
5010.53
5134.52
5148.5
4687.33
4146.55
4688.86
4545.9
4909.36
4811.37
4283.74
4567.79
4534.93
2923.06
3143.15
4632.39
4593.68
4788.04
4867.21
3238.8
2857.86
4501.06
4673.83
2751.6
2882.1
3554
3737.69
3649.37
1513.56
2809.82
2839.85
6733.01
7175.86
7587.33
811.644
835.619
767.447
801.119
787.078
718.812
833.285
826.337
1063.82
1084.95
930.335
890.528
1117.46
1076.72
1269.16
1281.86
3008.34
1501.33
1008.89
2269.58
769.373
4052.35
4057.64
4373.26
3395.69
2345.57
2412.52
2232.37
2287.65
3307.79
5060.53
5115.33
3978.55
4590.68
4915.34
5037.52
767.621
3234.06
3137.66
3184.67
3245.15
3115.45
3016.64
2712.33
3282.85
3260.28
6660.54
6639.06
5951.02
5140.53
5905.12
6105.41
2538.84
1701.01
1736.76
1632.13
1666.45
2473.23
2046.29
407.612
606.637
592.162
614.26
595.82
361.29
1349.48
1421.9
1104.98
3231.76
310.576
235.443
434.912
549.023
486.19
708.385
638.881
531.642
516.996
515.085
989.669
1175.44
1146.46
1218.91
1196.83
1008.04
897.713
1060.76
1029.35
1119.37
1089.7
922.582
780.617
332.557
665.697
693.234
814.699
762.956
4433.75
4892.72
4765.49
5293.86
5115.76
4611.08
4178.99
4658.05
4699.75
4683.7
4646.31
4169.9
3234.23
3025.66
2726.02
4333.61
3870.37
3720.94
1192.41
1561.09
2947.07
2408.99
2387.08
2582.07
2472.23
2970.92
4895.23
5257.13
5316.18
4873.36
5065.36
4631.2
2457.29
1956.56
518.626
2765.42
3782.89
3401.31
2966.08
1687.11
1685.78
2278.65
1986.7
1508.62
2120.74
2550.91
2468.72
3046.63
2371.56
2415.08
2379.6
2365.02
3063.78
3341.88
2580.71
2515.68
2618.23
2908.78
3116.86
1139.66
1214.37
849.896
2871.35
2856.49
4526.89
4072.97
4096.05
4112.96
4075.77
4525.93
4642.13
4242.4
4209.15
4141.29
4198.57
4615.54
2933.98
2904.11
927.903
924.564
2028.12
1720.76
4150.47
3090.54
3361.01
3996.13
4382.83
3816.94
3607.79
1489.46
632.869
546.868
2956.36
2902.85
3077.3
2060.45
2629.23
2689.7
3524.2
3200.14
3179.21
3172.04
3194.14
3494.69
652.672
617.992
2781.86
922.624
939.402
918.442
913.427
2722.6
2925.14
984.098
1000.51
951.692
969.172
2896.93
455.795
458.919
423.039
440.045
1668.05
1034.14
1069.99
932.372
857.479
559.498
478.619
936.719
1651.17
1494.5
1638.47
965.403
1276.17
2440.51
1790.52
1503.81
1426.02
3778.95
3677.19
3443.67
3662.37
853.579
834.276
614.907
985.507
938.671
999.905
603.171
609.114
509.74
827.328
856.034
218.011
314.481
3973.01
2720.67
2815.72
564.514
2731.02
3679.7
3646.97
2756.84
2471.94
2768.59