/*--------------------------------*- C++ -*----------------------------------*\
  =========                 |
  \\      /  F ield         | OpenFOAM: The Open Source CFD Toolbox
   \\    /   O peration     | Website:  https://openfoam.org
    \\  /    A nd           | Version:  dev
     \\/     M anipulation  |
\*---------------------------------------------------------------------------*/
FoamFile
{
    format      ascii;
    class       volScalarField;
    location    "1200";
    object      yPlus;
}
// * * * * * * * * * * * * * * * * * * * * * * * * * * * * * * * * * * * * * //

dimensions      [0 0 0 0 0 0 0];

internalField   uniform 0;

boundaryField
{
    inlet
    {
        type            calculated;
        value           uniform 0;
    }
    outlet
    {
        type            calculated;
        value           uniform 0;
    }
    ground
    {
        type            calculated;
        value           nonuniform List<scalar> 
5358
(
44566.7
44567.8
44567.9
44568
44568
44568.2
44568.3
44568.5
44568.8
44568.8
44568.8
44568.5
44568.3
44567.9
44567.7
44567.5
44567.4
44567.3
44567
44567.1
44567.4
44567.5
44567.5
44567.6
44567.6
44567.7
44566.4
44566.6
44566.7
44566.6
44566.5
44566.4
44566.4
44565.3
48110.8
48109.4
48109.3
48109.2
48109.1
48108.9
48108.3
48108.9
48108.4
48108.1
48107.8
48107.3
48106.5
48106
48106
48105.7
48105.1
48105
48105.6
48105.7
48105.6
48106
48106.6
48106.2
48106.9
48107.4
48106.7
48107.6
48107.5
48107.7
48107.9
48108
48108.1
48109.3
50579.1
50577.5
50577.5
50577.4
50577.3
50577
50577.3
50578.1
50577.8
50577.8
50578
50578.2
50578.4
50578.7
50578.6
50578.5
50578.6
50578.5
50578.2
50577.8
50577.6
50577.5
50577.5
50576.6
50576.8
50577.8
50576.2
50576.5
50576.1
50576.4
50576.5
50576.7
50576.6
50578.4
51870.3
51867.6
51867.1
51867.4
51867.5
51867.1
51867.9
51867.8
51867.7
51867.8
51867.7
51868.2
51868.3
51867.8
51867.8
51867.3
51866.8
51866.8
51867.1
51866.6
51866.8
51867.6
51867.7
51867.7
51867.6
51868
51867.1
51867.5
51866
51867.1
51866.7
51866.7
51867.1
51869.8
52383.7
52380
52377.9
52377.5
52377.3
52376
52376
52374.1
52373.2
52371.3
52368.9
52365.1
52362.4
52360.1
52358.6
52357
52355.3
52355.7
52357.4
52361.1
52363.4
52364.7
52366.6
52368.8
52371.2
52372.7
52373.5
52375.6
52375.9
52377.6
52376.7
52377.4
52379.3
52382.7
52437
52433.1
52428.4
52426.4
52426.1
52422.5
52418.9
52413.6
52408.2
52400.6
52393.2
52384.7
52374.6
52364.3
52358.8
52353.8
52351
52353.4
52359
52365.6
52373.7
52382.4
52389.9
52397.2
52403.5
52409.1
52413.5
52417.8
52421.5
52424.6
52425.4
52426.5
52431.2
52435
52230.4
52225.4
52218.8
52214
52211
52204.1
52195.7
52185.1
52173
52158.3
52139.4
52115.2
52092.1
52068.5
52050.1
52039.1
52035.3
52042
52055.6
52075.8
52095.1
52111.5
52128.6
52144.2
52159.8
52172.8
52183.2
52193.2
52201.6
52207.6
52211.4
52214.8
52222
52225.6
51885
51880.1
51870.6
51861.7
51854.3
51843.5
51828.4
51809.2
51784.9
51754.5
51719.7
51679.8
51627.4
51572.9
51533.1
51511.3
51508.2
51523.4
51550.7
51587.2
51627.3
51665.5
51700.2
51731.4
51759.7
51784.5
51805.8
51823.1
51838.1
51848.6
51855.3
51862.7
51872.7
51877.5
51474.7
51468.8
51455.8
51442.9
51429.6
51413.1
51389.9
51358.7
51322
51275.4
51211.2
51128.6
51051.5
50981.2
50925.1
50893.8
50890
50910.5
50948.2
50996.1
51047
51103
51162.9
51219.5
51269.1
51312.7
51348.1
51377.6
51402.1
51419.5
51430.6
51443.6
51456.1
51462.6
51042.6
51034.8
51020.2
51001.7
50981.6
50955.7
50924
50878.9
50819.8
50746.2
50667.7
50571.3
50460.5
50349.8
50256.6
50204.9
50197.7
50225.9
50286.4
50360.3
50438
50516.1
50591.1
50659.1
50725.5
50794.9
50857.9
50904
50938.2
50963.7
50981.5
51000.5
51016.4
51024.4
50613.7
50604.5
50588.2
50564.9
50537.4
50501.3
50454.1
50396.5
50328.9
50257.8
50169.1
50049.2
49895.8
49733.9
49588
49487.7
49443.2
49463.4
49555.4
49667.4
49788.2
49903
50009.4
50104.9
50189.3
50267.9
50346.2
50418.8
50470.1
50505.9
50534.6
50559.5
50579
50588.7
50203.1
50192.9
50174.5
50148.1
50113.4
50067.9
50009.1
49954.3
49892
49826.7
49767.6
49800.8
23293.6
22957.2
22473.1
22125.6
22162
22505.7
22744.1
22922.2
23091.9
23259.6
23409.7
23537
23640.7
23724.6
49898
49955
50014.9
50065.8
50105
50135.8
50159.3
50170.6
49818.4
49808
49788.2
49759.3
49719.4
49667.7
49617.1
49566.1
49514.6
49488.4
49581.4
50218.5
22462.8
23847.8
10203.9
9701.71
7454.76
11235.6
21105.1
21133.4
21396.8
21705.7
21953.4
22160.3
22320.7
22442.2
49529.9
49543.2
49600.1
49654.2
49702.3
49739.2
49765.9
49778.9
49463.7
49453.1
49432.6
49402.5
49359.9
49314.6
49270.3
49223
49186.6
49216
49522.2
50941.5
24446.7
32397.8
9531.15
7119.13
9534.2
25285.7
21811.5
21105.9
21557.1
21852
22047.4
22186.2
49233.8
49182.7
49235.2
49286.8
49334.1
49374.7
49403.6
49418
49140
49128.7
49109
49078.7
49038.9
49000.5
48957.9
48910.6
48881.2
48935
49367.7
51291.5
25315.8
13556
22151.8
12206.9
12579.2
3405.36
12993.4
13835.9
36719.6
23573.4
21866.6
22036.4
22203.2
48982.8
48872.6
48915.4
48965.9
49008.5
49045.6
49074.3
49089.7
48845.5
48834.4
48816
48786.7
48752.7
48716.8
48671
48618.4
48578.9
48610.8
49080
51410.3
26130.5
8311.56
2369.69
3673.3
5275.43
3760.36
2538.2
4981.27
3979.66
33485.1
25912.9
22568.4
22111.8
22251.5
48746
48605.6
48637.6
48684.5
48723.6
48754.3
48778.6
48794
48577.7
48567.7
48550.9
48523.7
48493.8
48456.9
48406.2
48344.3
48280.6
48268.8
48808.5
51725
27226.9
8099.86
27350.7
27816.3
22282.1
42203.4
31020.3
22805.2
22394.3
22306.7
48495.3
48366
48392.2
48434.7
48471.9
48496.8
48515.7
48528.3
48333.9
48324.6
48309.9
48285.4
48257.4
48218.2
48162.5
48089.4
47996
47953.5
48647.8
52151.6
28110.5
15773.4
13311.3
17350.9
9206.97
35319.9
29523
22824
22389.5
22376.4
48227.4
48136.5
48168
48208.5
48243.8
48266.3
48280.4
48289.9
48110.2
48101.4
48089
48066.3
48037.6
47995.8
47935.4
47850.6
47724.5
47649.9
48424.6
51994.8
27957.7
27070.8
1425.79
2135.57
19736.1
31491.1
17812.2
29312.4
27035.3
21858
22214.9
22442.3
47949.9
47906.1
47953.4
47998
48033.1
48053.3
48064.6
48073.3
47901.6
47894.3
47883.2
47860.1
47829.7
47784.8
47718.3
47619.1
47452.3
47319.6
48054.8
51326.5
27339.7
25215.1
6230.52
2209.01
1325.29
2310.94
2508.71
27613.4
27472.9
21877.7
22502.3
22479.5
47662.9
47673.8
47743.6
47794.6
47832.1
47852.3
47865
47873
47705.5
47698.1
47686.3
47662.9
47628.5
47578.8
47503
47385.9
47170.2
46949.1
47544.9
50339.1
26416.1
24263.7
17014.6
2225.2
1878.51
7207.78
19372.8
23767
34057
29164.5
22493.3
23657.1
22485.5
47368.4
47440.6
47536.5
47594.9
47636.6
47661.6
47675.5
47684.6
47518.5
47510.4
47498.1
47474.1
47433.8
47375.4
47288.8
47150.4
46881.2
46546.3
46935.3
49224.2
25397.6
23641
17151.8
12456.2
13895.1
13381.2
17253.7
16289
26208
35438.6
29783.2
23389.1
25306.4
22438.6
47074.6
47211
47332.3
47400.3
47448.5
47478.3
47493.8
47503.9
47337.3
47329
47315.5
47290.5
47245.8
47176.3
47074.3
46913.8
46594.2
46136.9
46285.2
48106.9
53844.9
51474.5
49930.7
43852.5
40471.2
36864.1
31945.3
49051.3
66560.6
76334.2
64745.1
60579
55338.9
47199
46808.6
46996.2
47140
47214.6
47267.5
47299.4
47316.8
47327.6
47160.7
47152
47137.3
47110.5
47062.2
46983.5
46865.5
46675.5
46308.1
45739.9
45665.5
46950
52590.8
52222.2
53542.3
52061.9
47397.3
42291.8
40291.3
51566.4
63945.5
71067.8
62148.1
59099
54234.7
46860
46575.6
46801.6
46954.7
47033.9
47089.9
47124.1
47143.2
47154.1
46987.5
46978.2
46963.1
46935.5
46883.3
46798.7
46666.4
46447.4
46033.3
45366.2
45085
45807.7
51181.9
52620.8
55761.5
56221.7
52050.4
45563.6
44008.7
53728.5
62769.3
67473
61476.5
58955.9
53345.1
46609.9
46357.4
46613.6
46771.2
46856.3
46914.5
46950.6
46970.2
46982.1
46816.5
46807.1
46790.9
46761.7
46706.3
46615.5
46471.1
46228.5
45771
45018.8
44552.3
44747.9
49764.5
52150.8
56446.6
58527.6
54580.2
47186.2
44935.5
54943
62198.2
65029.4
61353.7
58665.2
52583.9
46412.1
46153.1
46429.9
46589.9
46679.3
46740.7
46778.5
46798.6
46811.1
46649.3
46639
46621.7
46590.3
46530.9
46434.5
46281.3
46018.2
45525.1
44703.1
44074.1
43800
48410.2
50888.9
56138.3
59918.2
56509.9
48588.5
45147.1
55591.2
61875.5
63341.6
61118
58109.8
51922.8
46246.5
45964.5
46251.2
46412.2
46504.4
46568.3
46607.7
46629
46642.3
46484.3
46474
46455.2
46421.3
46359.2
46258.1
46097.9
45818.9
45299.3
44423.4
43656.2
42976.7
47161.1
49191.4
55518.9
60672.3
57606.6
49255.1
45363.2
55918.6
61633.2
62141.8
60640.8
57408.5
51344.4
46102.6
45791.7
46079.3
46238
46332.3
46398.6
46439.5
46462.1
46475.5
46324.7
46313.9
46293.7
46257.6
46193.4
46089.4
45924.6
45634.8
45095.5
44181.7
43299.4
42276.2
46025.7
47462.5
55002
61071.8
58063.7
49549.5
45451.9
56008.1
61368.8
61217.2
59985.2
56653.1
50831.6
45974
45635
45917.9
46072.3
46167.3
46233.6
46276
46300.5
46313.8
46167.2
46156
46134.8
46097.1
46031.8
45926.3
45758.4
45464.1
44913.8
43975.9
43001
41695
45034
45968.4
54890.3
61457.8
58422.1
49823.7
45557.1
56020.8
61146.3
60494.7
59271.5
55916.7
50376.3
45858.9
45494.8
45765.8
45912.7
46007.1
46072.9
46115.2
46140.3
46153.9
46022.5
46011.2
45989.2
45950.6
45885
45779.8
45611.1
45315.2
44759.6
43806.7
42758.5
41217.6
44156.8
44734.4
54752.4
61412
58311.3
49742.4
45355.3
55729.9
60700.5
59737.7
58443.2
55157.5
49952.2
45757.7
45375.4
45632.6
45770.4
45863
45926.4
45969
45994.2
46007.5
45873.1
45862
45840
45801.3
45736.4
45633
45466.3
45173.7
44621.6
43666.8
42564.5
40856.6
43437.2
44169.8
55467
62115.8
59093.5
50229.9
45875.9
55918.6
60586.9
59247.5
57799.9
54520.9
49578
45663.2
45266.8
45504.8
45629.6
45717.6
45777.9
45818.6
45843.3
45856
9799.24
9805.1
6558.74
23191.6
16833.2
11157
23447.5
9645.25
3675.48
16869.7
1412.79
7856.5
12199.4
1839.3
1190.4
1410.59
2800.82
26177.3
5730.29
903.438
13251.5
1813.03
4116.85
22766.4
13971
1827.42
3964.93
4791
9561.17
3017.34
26801.5
4203.86
9755.54
3303.47
7387.08
19577.1
3086.53
8833.27
20644.5
28530
8421.94
3123.19
21947.3
46740.1
18694.3
16122.1
432.884
1081.83
11718.8
682.149
10306
10450.5
9583.51
21571.8
12956.5
1785.84
19899.3
420.847
2478.13
3837.16
1677.31
5274.68
15063.3
11988.3
1496.76
323.626
2210.57
1612.58
244.228
441.914
6962.92
7065.91
8387.09
7969.24
11931
27974.4
8249.19
481.974
15532.8
6055.69
429.631
13874.7
15778.6
3900.4
8535.54
5531.83
12046.3
16396.2
668.219
8129.18
13808.5
18067.7
16095.3
5397.44
4001.42
22051.5
10072.5
21664.5
22289.6
9906.22
11304.5
13162.4
5061.68
21461.6
13965.3
10655.3
21057.4
21152.8
12944.1
20009.9
34955.4
13915.4
719.751
7657.55
4307.21
2884.84
1306.77
5958.91
9408.57
11162.2
9507.44
2390.06
8267.81
1515.85
25300.1
29874.6
24103.6
20927.5
39381
29177.7
13165.6
14099.5
25745.7
12123.5
1379.27
4772.64
12236.9
8402.14
4876.26
1920.07
2973.8
304.475
13317.3
3878.44
13503.7
7996.96
27762.2
26897.4
31535.9
14752.3
16575.5
26633.5
8219.51
11901.5
3907.2
3818.17
12836.4
58770
25543.4
4362.19
17001.2
18529.6
3835.12
5375.52
4447.09
14537.4
40871.2
19996
16872.5
16673.5
27783.5
7884.61
2294.76
2427.69
11985.2
11376.7
28821.2
2767.09
3428.36
10935
3487.37
2768.83
7423.31
9187.01
1971.4
22858.2
8615.33
11518.6
4820.62
29230
13931.8
9746.86
7932.07
2800.92
2240.83
3649.26
4128.68
8793.31
22720.4
8772.9
8178.91
4195.96
4403.56
25953.5
1059.22
20997.1
3280.87
2383.13
23135.5
4261.77
3413.56
38644.1
13312.2
4668.11
7302.3
6151.46
4367.34
5948.8
13517.6
2235.9
1794.93
7945.54
6588.02
1025.79
3402.1
1778.05
3851.48
3069.01
2641.52
6222.58
15407
18143.9
2952.73
6290.78
7698
2676.36
10786.4
10327.9
5263.48
12504.4
8933.57
5862.59
10305.7
7054.24
4164.5
1493.24
852.113
22191.7
1242.89
1855.24
7455.2
8889.66
24212.7
7155.84
1550.77
7511.43
23436.8
9758.69
2667.4
621.791
13503.4
2177.99
5712.4
12190.5
1261.27
1257.57
1641.55
2845.84
1600.61
10361.2
105.404
12198.8
1479.3
9092.31
675.259
2641.47
12927.3
1659.17
3516.05
1487.87
5992.75
16222.3
14690.3
6471.86
5344.44
3211.55
4373.43
4488.48
2882.41
3300.07
1935.06
5923.84
4384.62
7613.19
3145.68
13776.7
4188.01
4285.2
7293.18
1078.29
23989.1
7919.14
4467.66
12993.8
5257.08
4074.65
3781.19
1620.09
7791.29
1878.18
1873.61
1976.1
2962.02
7796.97
1571.45
10969.5
2988.45
2142.96
6050.29
2568.85
21713.8
2240.79
5289.25
3662.2
11818.2
9665.51
11396.6
3321.91
2343.69
29237.4
10586.4
3609.24
9546.12
8652.55
8050.01
7251.54
5504.38
6203.91
6426.98
5451.11
22708.3
22845.3
9069.83
6031.82
5724.18
6357.88
6129.85
5481.64
21796.5
8901.81
9588.57
9888.78
14873.2
4843.21
3193.89
2599.94
4786.95
1344.05
6672.18
8576.48
7596.52
15343.8
13336.1
3625.65
2934.85
9384.23
7227.65
9584.81
22939.2
5318.82
12203.4
13714.1
15214.9
2402.77
7898.43
15064.8
8145.88
2259.02
754.786
2256.27
902.102
1144.61
2076.27
603.235
3495.5
12433.6
1282.37
6560.9
4255.88
5766.22
4671.04
476.063
2264.46
486.468
1982.61
584.009
6185.05
8454.42
6148.09
5825.97
602.999
1006.05
5601.48
6053.76
2498.61
2032.45
2488.97
3080.69
7104.98
6945.42
2691.81
13697.1
8190.67
3977.14
4108.21
1198.83
3846
8126.23
7622.37
4412.78
3477.28
4394.01
22295.2
21631.6
21833.8
26184.9
20419.9
29977.2
10307.4
10725.6
13040.5
7082.82
9055.79
7934.2
9096.24
6082.3
5868.77
26649.6
10174.3
3414.32
12269.6
12432.7
12343.6
11376.7
5449.67
2858.65
14233
6111.83
5035.75
5182.74
4397.66
1494.47
677.435
1612.6
1602.94
6812.39
17714.3
16610.9
7067.93
8161.48
2801.26
5911.55
15587
14653.7
3489.44
3108.55
3668.6
2599.68
4399.26
4284.77
17886.3
16074.4
18164.2
1203.73
8442.34
10101.9
3850.13
3634.72
4092
7609.6
6225.6
3053.23
15287.7
12525.5
15680.3
2857
2662.35
9592.04
21768.2
24684.4
3733.04
4933.36
5488.04
1041.76
323.171
1414.88
3474.54
3302.53
1060.89
3215.47
98.542
1393.73
491.162
477.509
4275.94
9149.31
2529.66
6342.24
6410.34
7665.52
2765.13
1128.02
15691.5
14491.8
17586.6
21612.5
21454.7
17405
15923
16231.9
9997.83
550.129
387.901
8624.61
10601.7
4565.61
7601.2
5712.19
3130.24
3007.39
442.978
703.844
15399.8
3723.74
20070.8
3103.75
3134.37
4190.17
1257.39
11845.8
11957.6
12042
1729.03
435.873
1582.14
1785.71
701.035
904.107
2651
1934.16
19833.6
9187
27061.3
2016.06
1547.48
941.229
3790.19
2380.16
2771.58
9703.52
2790.87
4065.46
3538.56
3609.32
2858.26
1284.11
3659.64
8772.53
1849.98
1483.69
3347.91
3843.16
23209.4
24341.8
21195.4
3585.73
9402.6
2109
4506.59
2495.48
1506.31
1639.44
3678.32
708.213
1582
2668.32
3115.15
1749.23
6453.52
4519.24
117.415
9374.48
8418.04
9720.2
5218.73
5551.7
1982.58
21356.5
19276.6
17473.8
742.321
2540.9
233.161
1094.69
1641.32
1345.16
3857.08
4395.93
5700.53
3130.78
2112.31
1840.66
426.802
2530.67
409.35
2199.41
446.668
246.303
444.481
2833.79
3902.64
2360.46
2481.33
561.949
788.002
2537.97
2150.56
471.214
447.049
6175.1
5485.86
6275.96
7643.95
4665.23
5109.57
208.536
509.551
8651
8153.38
7654.04
7062.22
7738.3
8573.94
2067.45
1991.11
6337.84
6520.59
6346.53
8169.15
3991.67
17034.3
7769.32
17292.3
10593.6
8962.34
8877.36
303.171
3060.4
2916.07
9726.29
9565.31
9541.13
9621.57
9653.29
10740.6
5976.43
6515.36
5814.07
18465.7
17092.2
17682.3
1620.63
2104.17
1375.19
1351.48
8298.95
6209.87
5250.86
4189.97
553.559
3811.27
368.126
9907.33
16830.1
10165.3
8870.84
2814.98
4444.34
4743
10287.5
4578.36
4707.65
12693.4
20193.2
28254.5
22647.9
20128.5
26669
4021.61
12078.1
5441.36
3737.75
7492.65
8865.49
6243.13
12445.6
12490.6
12306
2986.6
2972.94
2955.74
2974.7
8312.86
12408.8
22080
8168.39
11212.1
7861.25
5006.44
8036.29
2975.9
184.828
230.741
3539.49
6336.87
14119.6
841.15
863.42
4345.74
752.916
842.211
4827.15
395.701
928.224
3437.39
3511.92
3319.53
3476.11
1718.23
1279.12
1452.18
1600.16
628.747
351.982
141.813
263.859
363.994
22042.3
23890.3
27299.4
6056.21
5777.36
3690.52
1980.3
5589.45
5395.59
3196.07
3264.22
3128.26
3173.84
2929.95
2431.34
3687.96
3582.58
11838.6
4538.27
4702.36
3993.53
4423.6
11622.1
2990.79
11808.7
11751.4
11498.2
11726.4
3064.37
3129.26
11791.7
12011
11218
11488.9
3013.17
2652.22
3226.58
7731.67
7936.8
3366.87
8812.87
8226.95
8250.95
9748.21
9491.86
18040.5
14192.2
8863.41
14421.2
15561.6
7279.25
9798.45
8411.56
8510.27
7618.91
7923.51
8963.5
2808.07
2526.3
4624.05
5072.64
2427.82
9477.76
8863.43
3776.13
3512.06
3247.79
4293.87
12364.5
13210.1
11037
11666.7
4624.61
1226.72
3026
6683.91
6189.35
3194.3
7062.48
2913.94
9176.34
9546.18
11027.8
7515.36
8422.88
8498.58
5830.87
15888.4
15521.3
13189.3
14024.6
5456.59
2597.1
2405.26
4756.5
5153.62
4104.55
6415.75
5829.82
5467.88
1532.24
1683.44
394.683
337.72
1072.78
2871.16
2860.52
3211.89
359.438
162.979
1637.65
349.641
601.789
496.97
493.631
2908.85
956.453
1002.3
870.472
936.866
2795.92
2643.36
970.299
2668.4
2569.17
812.689
588.874
10518.8
4293.17
4867.61
4234.59
4217.7
10337.5
3082.16
4046.28
1406.55
8895.32
7485.88
7705.73
5798.73
6724.46
8462.7
2940.08
3024.24
10173.8
5096.36
4396.04
652.045
3719.94
1739.61
1748.68
1674.5
6226.9
6204.8
5724.38
5974.91
1986.54
3050.03
3084.6
8004.79
7260.46
7025.97
7680.43
7514.48
8612.66
4094.35
6411.15
3170.06
618.614
5446.17
5422.82
4541.05
4541.29
4587.59
4585.7
4283.19
8244.2
9503.07
5694.21
6758.35
1425.3
3274.27
2103.81
3494.05
3443.08
2814.35
2749.33
2955.47
2869.24
12058.7
12111.9
12329.2
1704.56
459.098
1595.2
2238.3
1171.47
8862.67
8133.89
8331.8
9461.39
534.626
1007.98
3737.13
2122.66
484.116
4073.07
2090.82
2730.34
4017.76
1920.8
1757.85
841.738
5897.73
90.4073
248.273
3267.14
155.117
823
3376.27
719.532
3456.07
3517.02
1084.7
1227.24
869.171
913.434
2377.19
1240.58
2638.64
961.676
1538.74
1159.85
1663.24
251.54
4968.92
124.57
159.359
4634.77
1598.98
1414.4
8711.2
2688.51
2120.03
4759.16
4535.82
2592.98
4016.9
5205.85
5424.85
3153.86
6144.54
4436.51
2299.13
11299.3
10852.2
3971.63
761.315
4380.51
6335.79
658.403
810.806
801.274
3207.31
2744.65
3124.27
10264.5
2561.59
3740.37
2748.76
7869.99
9445.55
1022.28
1600.28
2719.92
8456.44
8001.65
1816.99
1297.08
4536.3
339.269
4565.69
2994.92
11227.8
1428.05
3525.34
4034.43
4536.19
4963.25
12090
11321.7
11706.1
12064.7
11415.5
4300.24
3920.29
2116.68
10161.4
10981.9
2676.5
2632.75
4144.05
2755.89
7590.23
7608.74
8231.67
3140.48
2934.61
7301.31
2359.28
2502.28
5638.04
366.09
394.947
372.215
366.641
5909.38
422.818
345.967
5219.67
6000.68
401.491
394.986
377.531
400.307
5986.58
6427.06
379.882
375.431
391.709
381.213
6268.22
10250.2
9160.59
9069
8736.44
8879.57
10202.7
5131.85
855.826
5281.12
4401.51
1828.61
4850.45
7436.91
6996.71
1964.61
3158.65
622.766
681.984
3007.69
121.924
2676.59
2470.89
2781.82
3845.67
2817.07
1985.24
6034.49
6172.55
589.113
2433.7
620.472
1324.75
1893.55
2876.97
3294.89
1155.31
4134.15
3866.93
2962.04
1791.91
1406.92
3171.98
4965.32
1185.29
2345.04
2170.38
436.337
2471.4
453.919
316.145
407.1
2096.67
2259.94
2189.43
517.979
588.174
2484.5
2471.64
2912.9
2843.72
880.642
2352.72
770.393
846.474
647.846
743.407
2195.79
437.099
391.202
2919.24
980.588
530.345
1007.41
1025.03
3248.42
521.099
493.438
2394.1
2589.21
5956.02
5393.55
7235.25
6590.69
3336.89
3387.74
3280.36
3344.49
339.847
1057.84
4375.98
2113
1074.17
1248.38
2343.6
4457.32
3588.45
1295.08
1349.55
1606.39
3779.96
521.5
3197.51
3095.25
2209.12
2024.77
2616.74
2285.79
1851.34
1803.32
1981.47
1878.48
10139.3
14733.4
13527.4
7725.28
3173.82
9341.59
10649.2
10604
13078.9
12811.5
12063.9
2885.93
2784.59
3307.9
13883.4
5157.5
12892.9
8112.08
8018.65
8344.49
2413.4
2285.38
2536.06
2994.35
5325.56
5029.64
2405.63
2809.2
2215.27
4472.42
5702.37
5251.62
7776.09
7667.16
8037.64
21884.2
22652
22983.3
37138.1
34613.3
37976.1
34857.9
32701.1
28136.8
4342.85
11946.5
14960.2
32198.8
30092.2
32847
1383.85
1680.09
1598.16
2566.55
2758.03
2516.21
28087.7
27130.6
26754.3
2974.51
2977.81
2410.91
2113.4
1648.94
1043.92
136.254
327.828
2292.75
2388.58
2364.46
2801.08
2405.27
679.917
369.274
28894.4
30205.1
25157.7
10143.4
9977.05
9503.61
11364.4
10007.6
9298.95
10584.4
10639.1
9765.25
3780.2
3216.39
3041.02
1292.37
7183.93
8142.02
8250.64
1774.66
1051.81
1024.93
652.518
579.56
1042.91
1585.68
366.857
753.596
11580.2
11683.1
13148.8
1859.98
1517.14
1557.45
1326.55
790.214
1602.49
1653.45
1882.77
4728.6
1191.94
4588.14
4293.61
4267.23
4896.44
9536.83
3323.82
8590.85
4005.13
7747.19
7450.75
6876.23
2599.08
2426.52
2602.42
19730
21552.8
20242.5
511.345
989.873
401.951
865.158
12582.2
13960.8
4692.2
846.807
1425.61
802.519
10502.6
8406.81
8179.61
17990.9
17140.7
22190.2
1968.45
2006.93
1872.33
472.508
338.008
1574.07
1759.2
1836.8
13863.2
14550.7
15901.6
11790.6
13113.3
12710.4
244.317
2112.01
296.56
655.357
798.05
403.712
504.714
627.848
476.258
7675.26
9412.61
9914.31
499.497
416.703
2611.82
2635.05
2353.92
747.997
8155.36
7943.05
7865.88
17656.1
18265.5
18796.7
16981.6
17766.6
16951.9
4535.63
5167.27
5728.6
4097.74
4216.81
4131.55
13999.9
9411.81
9358.29
11141.2
9708.46
12610.5
9304.17
9350.12
11073.1
934.897
4377.8
4272.88
4144.29
2334.24
2318.36
2875.28
1001.14
8738.39
9514.02
10185.9
8217.94
1898.93
11255.7
10399.3
9590.61
8995.88
2383.19
2812.93
10007.4
2627.75
9889.86
10539.6
8923.15
2352.2
2207.79
2937.08
2983.12
29719.2
23450
24091.3
12813.8
12591.2
13369.8
12356.1
12764.7
12121.9
1745.77
5452.52
6568.33
5860.81
7470.29
8111.99
8332.59
6513.73
7627.39
5923.23
2520.12
3011.8
2326.33
2268.5
170.787
211.049
257.771
4081.72
2904.15
2525.15
12863.7
5074.72
13995.6
15473.5
13432.2
13126.8
14118.6
13784.3
16101.8
603.317
590.832
497.187
480.506
8322.65
8004.14
7946.46
3709.43
4529.63
4629.67
306.814
19479.7
18996.3
14997.6
5047.87
5381.26
4207.41
5388.49
5625.74
1921.21
17858.9
17915.5
19931.6
16958.4
14742.6
14447.9
15202.4
14956.4
16886.6
353.557
397.891
435.513
435.07
7967.2
7545.2
7443.98
2590.3
2385.8
2827.18
4400.4
4168.83
4888.75
4733.29
3244.77
3315.5
4943.72
5087.72
4205.5
4248.42
2640.19
3214.57
2821.73
1199.83
8878.54
9463.32
9037.37
5976.8
6722.52
6209.79
8510.49
8488.16
8717.65
8089.44
8233.49
8281.15
4342.3
5423.61
5565.39
959.646
444.55
406.337
3241.88
3147.24
3213.71
791.646
3135.92
2515.96
5475.52
5652.7
4918.33
6933.05
6745.29
7097.46
6012.85
6380.02
6545.33
2186.34
1040.51
1345.57
1364.81
3360.36
3453.43
1188.82
1601.41
6387.59
6833.52
6765.06
730.881
760.595
609.559
544.635
5513.01
6217.71
6012.41
9617.45
4220.67
8495.03
3938.81
3679.58
3985.92
1612.22
1449.69
1476.56
1770.97
1727.8
2249.34
2447.93
2044.86
6783.74
7159.77
7018.58
986.326
1265.04
1626.47
1928.56
7209.94
5916.05
4345.62
2864.82
2898.59
2951.23
2980.59
9796.69
10723
10741.3
1848.21
2225.2
3471.86
4175.26
3555.38
4345.28
4162.27
1700.82
5573.95
7002.19
6275.63
517.785
205.478
639.945
613.7
1499.53
1328.28
1472.73
1443.16
1515.59
1322.4
1653.47
2165.09
2038.16
2730.75
1564.38
9558.31
10414.4
11106
2912.87
1881.51
2920.66
3226.23
7446.62
6868.01
5630.7
7278.03
7657.98
8660.42
568.475
574.502
1505.74
1105.32
549.493
2729.97
2335.64
2410.21
315.805
252.768
177.601
146.215
12969.5
11481.6
11053.7
1220.98
1293.78
1789.43
2214.12
1881.1
3024.79
1258.21
940.536
1111.78
2104.55
2192.27
649.727
676.408
1765.58
4103.7
3014.62
1030.04
1500.89
8758.85
10033.6
9382.32
5173.56
4952.28
5273.63
4632.27
4407.25
4730.01
1456.36
4691.59
1908.22
2150.45
1731.91
7759.05
2996.55
7770.85
1746.87
1670.51
1831.17
1417.21
1192.63
2178.67
7363.5
7125.1
7645.79
573.823
458.746
5454
2429.88
2954.62
3826.84
3791.9
1587.55
1654.75
2249.9
1401.72
7384.57
7337.97
3098.23
2821.28
2345.64
1783.63
10523.8
9160.55
10577.8
10617.8
9796.5
8896.33
10880.4
10494.4
11168.8
3665.06
4614.62
4342.44
3732.31
3860.74
2766.49
905.375
555.291
11475
10923.2
9961.19
12053.1
11535
11518.9
565.121
576.064
1540.98
1142.49
6518.5
7973.73
9558.89
5053.32
618.548
4113.98
9677.01
10662.5
10308.5
6868.72
4414.82
544.961
8435.36
7268.27
8735.82
4879.45
2090.28
4294.42
4819.87
5271.8
2632.21
8030.95
7220.21
7818.42
6382.18
7184.81
611.89
671.617
2570.97
2630.06
7094.57
6934.32
8070.71
2059.86
2607.29
2832.62
560.194
819.889
432.986
472.567
1215.63
1148.18
1007.26
643.207
1420.32
1059.04
1115.41
1043.53
6170.48
5799.96
5942.41
5400.76
5314.68
5657.09
4550.44
4965.29
5033.7
445.29
2308.38
486.472
947.49
901.584
562.321
598.488
970.558
972.661
1341.31
1309.33
979.773
648.233
691.616
2187.93
2149.75
3469.47
3505.93
7989.08
7971.89
8150.62
466.427
465.598
325.539
463.782
1435.76
1414.92
1226.99
8048.45
7893.95
8006.38
7415.1
7698.93
7876.7
4657.71
4836.35
4311.89
3073.53
4274.11
4353.19
4501.75
17525
15973.2
19147.2
3563.79
7271.1
1506.1
2432.07
5532.83
2288.49
10399.7
11137.8
9984.31
5402.72
6700.28
2746.93
4110.22
2026.68
2146.04
1836.78
1928.32
2989.19
2590.79
2469.91
6747.62
6592.26
6519.78
5231.99
6164.65
6556.8
1792.68
1750.45
1652.62
1061.38
1234.22
1001.76
1618.59
1846.62
1839.08
1879.81
1871.5
1621.55
2605.77
3305.43
3426.49
3385.55
3265.66
3722.07
2520.04
1673.07
1411.64
2450.02
1090.26
4281.89
3754.65
4163
2981.37
3768.16
1518.89
2424.08
1939.23
3844.65
2638.77
2687.96
2486.68
2565.29
3755.12
467.673
2157.38
2037.99
2872.4
3030.02
3164.49
2793.12
1846.94
1885.29
1770.89
1809.08
2728.67
495.76
459.41
54.5695
1171.33
1115.14
1131.22
3206.98
296.38
959.595
401.22
1637.63
1514.44
1201.49
487.509
483.022
409.582
2586.29
2996.44
656.015
674.347
427.961
404.873
4927.81
3378.57
10032.8
2424.05
2667.19
862.666
4776.19
4931.11
5128.36
3108.74
2398.88
2401.15
2386.92
2394.45
3061.49
631.772
661.875
5796.53
6018.38
4306.78
3118.11
2398.46
2390.69
2402.77
2402.25
3130.3
3499.39
3347.03
3990.13
2312.13
2300.54
2216.59
2320.16
1229.26
1081.93
1086.54
1748.79
406.632
433.926
352.108
371.789
608.482
376.894
356.279
868.988
463.531
1593.05
1122.15
794.992
1490.52
199.901
541.813
463.88
166.93
401.414
294.99
917.268
665.193
755.692
1433.73
1475.81
1900.61
2006.59
1702.23
1677.51
1506.36
1714.25
1801.71
1226.33
1476.34
1356.38
2728.4
3511.81
3155.11
3496.09
3554.06
2802.02
1533.23
1546.71
1328.94
1417.5
2393.75
1798.33
1139.47
1168.51
1231.31
1106.78
1430.28
2159.92
2602.09
2445.91
1919.83
947.927
3512.37
2426.02
2242.58
2685.93
2585.14
3732.2
4343.99
4900.28
3475.62
2956.35
2603.17
3956
2944.49
1213.06
2094.89
2138.94
427.509
1494.5
1297.42
2501.35
1969.06
1364.39
2631.96
2398.67
3249.41
704.434
637.765
551.614
1342.05
2752.29
1709.72
1800.65
2041.27
1864.74
2960.29
2513.21
2229.11
1179.82
60.8907
75.0853
1959.07
2142.73
2008.38
549.138
488.773
664.402
323.366
376.688
166.929
1583.44
1637.86
762.979
1233.04
879.015
733.373
1511.64
1628.58
1461.4
2934.18
3366.04
3036.2
2519.2
2954.04
2045.36
1443.4
1477.28
1320.44
1396.84
1962.4
503.229
2431.18
334.554
443.428
760.686
769.591
576.594
708.562
383.195
700.558
933.056
99.2377
510.052
890.63
938.982
1039.64
854.891
649.266
464.015
456.035
328.7
444.787
416.04
491.795
1786.53
3744.94
1112.72
9557.34
9135.88
7965.19
554.426
3019.46
1999.46
2036.74
1923.2
1962.08
2971.53
1713.9
7537.64
3110
2797.01
2546.8
3022.27
2864.69
1751.11
517.033
499.866
591.142
453.744
1879.3
1147.81
606.502
981.21
435.196
450.09
1165.92
4010.73
4260.41
4356.64
2525.94
2295.49
2305.63
2489.37
931.577
1160.61
1831.33
1331.49
3286.72
2800.87
3423.66
544.368
3538.9
4442.88
2506.17
2819.22
9317.71
8959.07
7423.84
10590.3
10074.6
10261.5
551.662
3068.12
3051.86
511.402
10258.4
1762.98
6232.42
1729.37
1568.19
3492.61
2762.55
2441.52
4049.89
3603.86
4089.89
3113.28
2945.98
4712.18
4368.84
4403.89
4609.43
4213.89
4157.68
4366.15
4288.97
4665.19
3062.21
3091.69
4488.26
2999.21
12253.7
4849.9
2990.21
8575.72
7457.02
6294.37
2988.53
1047.28
1058.39
1018.71
1034.68
2986.38
2952
1088.28
1111.25
1067.37
1076.46
2964.52
9926.86
10096.1
8264.14
7066.17
8624.98
9361.19
4226.17
2399.11
2384.89
3015.47
1852.14
1811.29
1768.27
1820.32
184.884
435.754
4699.48
4850.43
4261.77
6177.23
5789.07
6090.14
583.38
669.659
515.223
3606.3
3289.43
4161.2
1102.29
721.609
888.154
1027.21
2425.04
2892.79
1487.43
3438.94
831.409
922.42
577.344
550.025
3476.91
3037.32
2973.86
3154.69
3075.92
3471.11
3401.69
2822.51
2700.73
2964.23
2834.49
3390.53
530.499
524.436
1323.67
1277.11
1444.12
1546.29
1680.12
1189.98
1209.1
1304.51
1475.18
2052.6
2198.7
1845.23
1917.34
1560.59
856.21
1167.55
988.316
299.106
272.001
359.648
370.538
2229.01
2310.52
2104.69
377.565
414.165
3220.24
2728.13
2734.08
2707.79
2715.34
3238.32
3132.8
2740.22
2758.96
2738.09
2741.87
3150.85
398.105
420.991
2748.62
2389.63
3708.41
3660.97
4637
5100.69
5023.9
5146.3
5160.54
4704.38
4164.25
4704.88
4563.76
4923.36
4825.7
4301.01
4563.39
4528.02
2916.05
3135.58
4631.88
4591.35
4745.13
4828.86
3219.37
2838.9
4467.33
4630.42
2744.65
2869.37
3578.16
3757.19
3669.68
1507
2797.96
2825.42
6779.57
7219.47
7628.71
791.823
838.927
739.324
772.32
815.45
752.614
848.064
851.224
1079.86
1137.35
932.375
902.14
1163.47
1132.92
1319.37
1335.13
3006.31
1498.59
1005.92
2267.99
766.664
4060.96
4066.48
4379.37
3404.33
2355.45
2421.03
2243.83
2298.52
3315.94
5145.03
5198.23
3997.87
4640.77
5006.65
5124.97
774.576
3286.47
3153.48
3145.29
3289.06
3188.1
3030.57
2734.93
3359.15
3323.84
6691.36
6669.83
5977.32
5175.34
5949.58
6147.12
2531.88
1697.12
1733.82
1626.67
1661.67
2468.13
2003.8
391.967
615.361
594.517
644.235
623.689
350.945
1186.62
1290.77
1061.05
3248.95
312.273
234.75
440.414
558.56
497.912
719.947
649.449
536.983
494.736
495.599
975.408
1158.38
1131.62
1197.25
1175.98
991.061
893.741
1057.29
1028.57
1109.2
1082.48
916.195
753.005
313.967
553.754
584.907
815.601
763.715
4436.44
4894.89
4767.5
5296.52
5118.18
4613.93
4180.57
4658.95
4700
4685.58
4647.78
4171.77
3233.93
3025.54
2725.97
4332.44
3870.18
3720.37
1192.6
1561.18
2947.11
2408.92
2386.99
2582.03
2472.15
2971.02
4896.14
5257
5315.97
4873.51
5065.38
4632.24
2458.04
1955.03
518.685
2765.82
3782.6
3401.2
2965.9
1694.34
1692.95
2276.68
1977.44
1538.59
2120.44
2572.49
2474.19
3046.7
2371.04
2414.47
2379
2364.5
3063.78
3322.6
2548.19
2507
2616.92
2905.25
3114.9
1129.67
1216.91
857.755
2871.89
2856.7
4526.55
4072.85
4096.22
4112.01
4075.27
4525.19
4641.82
4242.61
4209.47
4141.71
4198.96
4615.44
2934.59
2904.54
933.624
929.194
2025.13
1727.12
4162.35
3098.8
3367.8
3907.07
4353.24
3889.84
3607.69
1481.44
632.02
550.232
3002.21
2910.15
3073.21
2070.49
2657.38
2796.21
3498.57
3193.99
3172.73
3165.01
3185.34
3469.15
649.747
614.841
2786.1
924.714
941.814
921.693
916.072
2728.01
2929.49
985.866
1002.19
954.164
971.254
2900.66
491.099
492.015
456.409
475.117
1656.02
1029.43
1053.57
902.928
834.883
546.799
494.723
939.432
1591.39
1524.23
1663.98
1002.33
1310.34
2481.6
1831.69
1546.89
1387.42
3770.02
3664.46
3436.12
3655.92
813.366
719.189
589.926
843.275
805.057
975.678
546.879
503.622
456.948
729.013
756.6
215.094
313.108
3970.39
2715.65
2813.33
567.262
2732.43
3679.68
3650.01
2763.05
2477.21
2767.58
2769.26
3937.36
163.318
193.831
1878.74
1347.74
1392.45
641.679