/*--------------------------------*- C++ -*----------------------------------*\
  =========                 |
  \\      /  F ield         | OpenFOAM: The Open Source CFD Toolbox
   \\    /   O peration     | Website:  https://openfoam.org
    \\  /    A nd           | Version:  dev
     \\/     M anipulation  |
\*---------------------------------------------------------------------------*/
FoamFile
{
    format      ascii;
    class       volScalarField;
    location    "1000";
    object      yPlus;
}
// * * * * * * * * * * * * * * * * * * * * * * * * * * * * * * * * * * * * * //

dimensions      [0 0 0 0 0 0 0];

internalField   uniform 0;

boundaryField
{
    inlet
    {
        type            calculated;
        value           uniform 0;
    }
    outlet
    {
        type            calculated;
        value           uniform 0;
    }
    ground
    {
        type            calculated;
        value           nonuniform List<scalar> 
5358
(
44566.7
44567.8
44567.9
44568
44568
44568.2
44568.3
44568.5
44568.8
44568.8
44568.8
44568.5
44568.3
44567.9
44567.7
44567.5
44567.4
44567.3
44567
44567.1
44567.4
44567.5
44567.5
44567.6
44567.6
44567.7
44566.4
44566.6
44566.7
44566.6
44566.5
44566.4
44566.4
44565.3
48110.9
48109.5
48109.4
48109.2
48109.1
48108.9
48108.3
48108.9
48108.5
48108.1
48107.8
48107.3
48106.5
48106
48106
48105.7
48105.1
48105
48105.6
48105.7
48105.6
48106
48106.6
48106.1
48106.8
48107.4
48106.7
48107.6
48107.5
48107.7
48107.9
48108
48108.1
48109.3
50579.1
50577.5
50577.5
50577.4
50577.4
50577
50577.3
50578.1
50577.9
50577.8
50578
50578.2
50578.4
50578.7
50578.6
50578.5
50578.6
50578.5
50578.2
50577.8
50577.6
50577.5
50577.5
50576.6
50576.8
50577.8
50576.2
50576.5
50576
50576.4
50576.5
50576.7
50576.6
50578.4
51870.3
51867.6
51867.1
51867.4
51867.5
51867.1
51867.9
51867.8
51867.7
51867.8
51867.7
51868.2
51868.3
51867.9
51867.8
51867.3
51866.8
51866.8
51867.1
51866.6
51866.7
51867.6
51867.7
51867.7
51867.6
51868
51867.1
51867.5
51866
51867.1
51866.6
51866.7
51867.1
51869.8
52383.7
52380.1
52377.9
52377.5
52377.3
52376.1
52376
52374.1
52373.3
52371.3
52369
52365.1
52362.4
52360.2
52358.6
52357.1
52355.3
52355.7
52357.4
52361
52363.4
52364.7
52366.6
52368.8
52371.2
52372.6
52373.5
52375.5
52375.9
52377.5
52376.6
52377.3
52379.3
52382.6
52437.1
52433.2
52428.5
52426.5
52426.2
52422.6
52419
52413.7
52408.3
52400.7
52393.3
52384.8
52374.7
52364.4
52358.9
52353.8
52351
52353.4
52359
52365.6
52373.6
52382.3
52389.8
52397.1
52403.4
52409
52413.4
52417.7
52421.4
52424.5
52425.3
52426.4
52431.1
52434.9
52230.6
52225.5
52218.9
52214.1
52211.1
52204.2
52195.8
52185.3
52173.1
52158.5
52139.6
52115.4
52092.3
52068.6
52050.3
52039.2
52035.3
52041.9
52055.5
52075.6
52094.9
52111.3
52128.4
52144
52159.7
52172.6
52183
52193
52201.5
52207.4
52211.3
52214.6
52221.9
52225.5
51885.2
51880.3
51870.8
51861.8
51854.5
51843.7
51828.6
51809.5
51785.1
51754.8
51720
51680.1
51627.8
51573.2
51533.4
51511.4
51508.2
51523.3
51550.5
51586.9
51627
51665.2
51699.9
51731.1
51759.4
51784.2
51805.6
51822.9
51837.9
51848.4
51855.1
51862.5
51872.5
51877.3
51474.9
51469.1
51456
51443.2
51429.9
51413.4
51390.2
51359.1
51322.4
51275.9
51211.8
51129.2
51051.9
50981.6
50925.4
50894
50890
50910.4
50947.9
50995.7
51046.6
51102.5
51162.3
51218.9
51268.7
51312.3
51347.7
51377.2
51401.7
51419.2
51430.3
51443.3
51455.8
51462.3
51042.9
51035.1
51020.6
51002.1
50982
50956.1
50924.5
50879.5
50820.5
50746.9
50668.3
50572
50461.2
50350.5
50257
50205.1
50197.7
50225.7
50286
50359.7
50437.4
50515.4
50590.4
50658.4
50724.7
50794.2
50857.3
50903.5
50937.7
50963.2
50981.1
51000.1
51016
51024.1
50614.1
50605
50588.6
50565.5
50538
50501.9
50454.9
50397.3
50329.7
50258.7
50170.1
50050.3
49897
49734.9
49588.6
49487.8
49443.1
49462.8
49554.6
49666.4
49787.1
49902
50008.4
50103.9
50188.5
50267.1
50345.4
50418
50469.4
50505.3
50534.1
50559
50578.6
50588.3
50203.7
50193.5
50175.1
50148.8
50114.2
50068.8
50010.1
49955.2
49893
49827.8
49769
49802.1
23295.1
22958.8
22474.7
22126.7
22162.1
22504.7
22742.8
22920.8
23090.5
23258.2
23408.3
23535.8
23639.7
23723.8
49897.2
49954.2
50014.1
50065.1
50104.3
50135.2
50158.7
50170.1
49819.1
49808.7
49788.9
49760.1
49720.4
49668.8
49618.1
49567.2
49515.9
49489.9
49582.9
50218.8
22464.2
23844.9
10203.4
9701.67
7446.06
11231
21102.6
21131.2
21394.6
21703.4
21951.1
22158.4
22319.1
22441
49529
49542.4
49599.3
49653.3
49701.5
49738.5
49765.3
49778.4
49464.5
49454
49433.5
49403.6
49361
49315.8
49271.6
49224.4
49188.2
49217.8
49523.3
50938.6
24442.2
32383.8
9529.42
7114.24
9531.16
25282.7
21819
21102.2
21553.9
21849.6
22045.6
22184.9
49233
49181.7
49234.3
49286
49333.2
49373.9
49402.9
49417.3
49140.9
49129.7
49110.1
49079.9
49040
49001.7
48959.3
48912.3
48883.2
48937.1
49368
51284.4
25310.5
13558.6
22184.6
12211.2
12574.3
3400.26
12989.4
13824.9
36680.7
23570.6
21864.6
22034.6
22202
48982.2
48871.6
48914.6
48965.1
49007.8
49044.8
49073.6
49089.1
48846.5
48835.5
48817.2
48788.1
48753.9
48718.2
48672.7
48620.5
48581.5
48613.2
49077.5
51390.1
26109.7
8299.35
2353.32
3722.21
5272.31
3772.84
2488.43
5003.5
3945.03
33420.6
25863.9
22567.1
22112.8
22250.7
48745.7
48604.7
48636.8
48683.8
48723
48753.7
48777.9
48793.4
48578.8
48568.9
48552.2
48525.2
48495.1
48458.5
48408.3
48346.9
48283.9
48271.3
48802.4
51696.8
27190.8
8098.69
27386.9
27866.7
22292.6
42130.3
30935.5
22777.6
22395.1
22307.3
48495.4
48365.3
48391.4
48434.1
48471.4
48496.4
48515.3
48527.8
48335.1
48325.9
48311.3
48286.9
48258.8
48220
48164.9
48092.5
47999.9
47955.4
48637.2
52117.9
28090
15821.4
13398
17394.9
9207.42
35243.7
29421.3
22791.6
22389.5
22378.8
48227.9
48135.9
48167.3
48208
48243.4
48266
48280.1
48289.6
48111.5
48102.8
48090.5
48068
48039.2
47997.8
47938.2
47854.2
47728.9
47650.7
48409.2
51952.2
27933.7
27217.6
1424.17
2155.08
19756.1
31413.1
17789.2
29354.8
26944.7
21820.9
22223.1
22447
47950.9
47905.6
47952.9
47997.6
48032.8
48053.1
48064.5
48073
47903
47895.8
47884.8
47861.8
47831.5
47787.2
47721.4
47623.2
47457.3
47319.2
48034.2
51268.6
27287.4
25373.3
6171.08
2220.07
1326.55
2316.11
2515.45
28008.5
27493
21861.3
22527.5
22486.5
47664.1
47673.2
47743.1
47794.3
47832
47852.2
47864.8
47872.9
47707
47699.7
47688
47664.8
47630.5
47581.4
47506.6
47390.8
47176.1
46948.6
47522
50270.9
26341.8
24346.4
16829.1
2227.43
1872.95
7223.86
19230.3
23334.3
34367
29301.6
22498.2
23698.3
22493.7
47369.2
47439.8
47536
47594.7
47636.6
47661.5
47675.4
47684.6
47520
47512.1
47500
47476.2
47436.3
47378.4
47292.8
47156.2
46888.7
46547.4
46914.1
49153.9
25295.5
23660.5
17137.8
12549.6
13971.5
13513.3
17577.4
16053.4
26020.1
35561.8
29930.7
23371.2
25342.7
22446.5
47074.7
47210
47331.5
47400
47448.4
47478.2
47493.8
47503.9
47338.9
47330.8
47317.5
47292.8
47248.7
47180
47079
46920.7
46603.4
46141.1
46267.9
48044.6
53401
51192.8
49657.1
43467.1
40313.9
36733.1
32009.6
48724.7
66440.1
76462.4
64739
60442
55372.6
47210.6
46807.2
46994.5
47139
47214.2
47267.4
47299.3
47316.9
47327.7
47162.5
47153.8
47139.4
47113
47065.5
46987.8
46871.2
46683.3
46319
45747.5
45653.2
46907.8
52102.2
51912.5
53314.6
51806.6
47249.6
42236
40093.1
51381.5
63841.4
71051.3
62016.8
58997.6
54243.9
46869.5
46572.8
46799.4
46954
47033.3
47089.6
47124.1
47143.3
47154.3
46989.3
46980.1
46965.4
46938.2
46886.9
46803.5
46673
46457
46046
45377.9
45079
45787.1
50676.5
52281.5
55544.7
56005.9
51893.7
45481
43943.4
53618
62640.4
67335.2
61267.6
58833.8
53337.2
46616.9
46353.9
46611.2
46770.5
46855.7
46914.3
46950.7
46970.4
46982.3
46818.5
46809.2
46793.3
46764.5
46710.2
46620.7
46478.4
46239.6
45785.4
45034.5
44553
44749.4
49267.4
51802.5
56222.3
58323.9
54439.7
47117.7
44898.8
54838.6
62041.1
64817.9
61128.5
58535.1
52563.9
46416.4
46149.3
46427.4
46589.1
46678.8
46740.6
46778.6
46798.8
46811.4
46651.3
46641.2
46624.2
46593.4
46535
46440.1
46289.2
46030.4
45541
44722.7
44081.6
43822.9
47944.1
50568.4
55909.6
59714.8
56369.4
48498.9
45172.3
55493.2
61716.2
63114.1
60913.3
57981
51893.5
46248
45960.7
46248.7
46411.2
46503.9
46568.2
46607.8
46629.2
46642.5
46486.3
46476.2
46457.8
46424.5
46363.5
46263.9
46106.3
45832
45316.6
44446.6
43670.1
43020.8
46741.3
48914.2
55279.3
60463.9
57475.6
49166.2
45395
55818.8
61496.1
61934.8
60467.9
57285.8
51307.8
46101.7
45788
46076.7
46236.9
46331.8
46398.5
46439.5
46462.3
46475.7
46326.9
46316.2
46296.4
46260.9
46197.8
46095.5
45933.3
45648.6
45114.2
44208.2
43319.5
42342
45661.5
47222.4
54744.3
60856.1
57932.5
49457.2
45488
55933.9
61264.9
61047.5
59840.7
56537.6
50789.9
45971
45631.4
45915.3
46071.1
46166.8
46233.4
46276
46300.6
46313.9
46169.3
46158.4
46137.5
46100.5
46036.3
45932.5
45767.4
45478.4
44934
44005.4
43026.8
41783.2
44726
45762.4
54610.8
61238.3
58287.1
49726
45589.2
55976.7
61077.7
60365
59148.8
55808
50331.1
45854.1
45491.2
45763.2
45911.3
46006.4
46072.6
46115.1
46140.2
46153.9
46024.7
46013.6
45992
45954.1
45889.6
45786.2
45620.4
45330
44781.9
43838.9
42789.5
41328.1
43898.7
44563.6
54455.6
61190.7
58173.4
49643.2
45383.6
55712.1
60659.2
59641.3
58337.9
55055.4
49905.1
45751.6
45372.1
45630
45769
45862.2
45926.1
45968.8
45994.1
46007.5
45875.3
45864.4
45842.8
45804.8
45741.1
45639.5
45475.8
45188.8
44645.5
43701.5
42600.3
40988.3
43228.9
44015.4
55157.3
61902.1
58961.4
50136.6
45909.8
55926.4
60571.2
59178.7
57707.5
54424.9
49529.9
45656.1
45263.5
45502.2
45628.1
45716.7
45777.4
45818.2
45843
45855.8
9797.39
9806.26
6553.7
23210.4
16849.7
11152
23456.8
9642.14
3671.52
16893.2
1424.16
7853.57
12195.8
1837
1211.81
1414.19
2825.56
26169.2
5749.6
901.627
13242.9
1822.91
4131.57
22741.1
13855.7
1841.89
4041.04
4784.87
9581.59
2980.3
26844.7
4215.33
9763.19
3386.19
7407.93
19575.2
3141.2
8847.92
20708.5
28573.6
8421.78
3122.83
21959.4
46707.1
18675.7
16167.1
436.416
1081.87
11745.8
686.868
10203.6
10478.1
9585.6
21556.2
12881.4
1764.15
19878.9
424.829
2536.41
3800.63
1652.7
5293.4
15066.8
11979
1497.78
324.515
2211.51
1616.25
237.514
443.151
6925.29
7053.13
8327.42
7938.47
11812.5
27417.2
8094.85
482.698
15564.2
6073.27
441.627
14007.9
15903
3910.42
8655.45
5614.6
12043.1
16396.8
673.986
8123.05
13868.9
18048
16082.9
5404.9
4010.96
22052.3
10070.8
21665.4
22289.1
9903.95
11301.8
13156.1
5059.25
21458.1
13962.6
10650.2
21055.1
21151.5
12942.3
20001
34957.3
13913.5
717.957
7656.55
4307.38
2884.53
1306.81
5954.45
9397.6
11157.8
9503.61
2389.05
8265.43
1515.41
25320.9
29860.1
24101.4
20925.9
39344.1
29158.4
13163.4
14090.2
25737.9
12132.3
1400.75
4698.96
12230.6
8389.77
4900.14
1917.28
2977.91
305.8
13312.2
3876.89
13488.3
7979.45
27748.4
26856.1
31415.4
14736.9
16546.6
26601.2
8200.34
11252.8
3549.42
3842.25
12867.6
58844.4
25585
4338.02
16977.4
18540.4
3828.69
5198.45
4465.12
14520.8
40858.3
20010.7
16853
16690.9
27753
7894.99
2325.05
2436.85
12016.1
11402.6
28854.9
2768.73
3432.07
10953.7
3488.27
2774.44
7424.86
9193.01
1973.12
22878.8
8626.94
11597.7
4824.66
29268.9
13963.6
9702.15
7937.71
2790.93
2239.38
3641.13
4050.62
8786.27
22701.8
8765.68
8141.09
4192.95
4371.69
26129
1048.81
20975.2
3290.79
2419.75
23036.1
4267.39
3419.58
38624.7
13326.5
4674.17
7265.72
6160.72
4383.57
5942.91
13360.8
2243.13
1776.43
7947.93
6595.99
1027.26
3407.45
1781.43
3852
3083.4
2653.97
6206.63
15382
18041.2
2927.6
6224.22
7780.47
2686.77
10785.2
10326.1
5263.8
12503.8
8933.52
5859.84
10302.9
7049.24
4164.72
1492.9
850.856
22209.7
1246.82
1860.06
7451.19
8889.03
24211.1
7151.59
1550.04
7508.84
23438.1
9755.05
2665.85
622.031
13537.5
2163.42
5711.89
12182.1
1253.55
1300.74
1654.87
2852.96
1610.16
10357.7
105.938
12415.2
1486.29
9089.68
799.787
2756.26
12922.2
1662.64
3514.74
1494.08
5977.97
16178.1
14656.4
6457.24
5331.1
2872.05
3639.48
4594.61
2532.56
2993.27
1948.04
5950.7
4360.21
7649.76
3037.83
13722
4151.08
4293.8
7311.82
1093.71
24016.1
7901.21
4473.56
12926.3
5091.94
4110.62
3784.82
1612.93
7775.22
1927.23
1859.11
1976.93
2990.72
7810.45
1537.63
10990.3
2995.18
2210.43
6032.45
2576.98
21746.6
2249.89
5266.43
3666.34
11851.4
9683.57
11411.2
3326.24
2345.63
29269
10594.3
3609.18
9559.9
8647.5
8058.3
7247.61
5495.39
6211.8
6427.97
5446.1
22714.7
22857.1
9075.19
6034.09
5724.23
6365.23
6133.57
5482.44
21788.7
8895.64
9563.13
9839.48
14886.6
4827.86
3193.66
2610.95
4778.81
1360.54
6695.63
8590.82
7600.25
15366.6
13337.1
3555.2
2922.15
9433.1
7196.19
9609.53
22943.5
5322.2
12093.2
13665.5
15158.7
2397.6
7894.92
15058.6
8143.9
2252.34
764.836
2331.16
914.317
1133.99
2146.65
586.932
3501.14
12429.3
1271.06
6564.42
4300.49
5788.38
4707.14
477.185
2270.88
487.613
1968.77
578.421
6190.21
8462.69
6096.58
5793.52
596.761
1007.68
5619.1
6058.69
2508.95
2037.36
2509.42
3099.16
7082.7
6902.56
2691.38
13694
8172.93
4128.72
4198.2
1265.97
3970.66
8073.27
7572.87
4417.9
3485.53
4399.64
22296.7
21632
21834.7
26175.3
20418.5
29967.4
10308.9
10721
13024.4
7079.02
9058.06
7934.34
9091.5
6087.28
5853.69
26677.4
10145
3406.3
12269.7
12432.8
12347.6
11356.8
5439.02
2852.06
14219.8
6104.45
5031.27
5018.18
4196.78
1494.34
683.404
1620.38
1616.39
6813.63
17761.8
16652.1
7487.68
8444.94
2972.88
5904.94
15593.2
14647.6
3494.17
3114.31
3672.8
2600.58
4403.63
4286.53
17931.2
16108.2
18168.8
1203.78
8439
10099.1
3847.3
3632.35
4073.58
7507.8
6204.4
3082.39
15279
12527.9
15676.2
2842.14
2652.41
9576.34
21946.6
24804.1
3676.65
4865.45
5421.7
1047.51
324.601
1414.14
3476.13
3304.36
1061.06
3222.77
99.0693
1397.37
496.462
482.796
4301.12
9116.32
2526.25
6357.37
6419.88
7666.9
2814.16
1138.16
15622.4
14508.2
17833.7
21385.5
21220.7
17196.6
15905.6
16215.4
9995.43
550.573
387.811
8619.74
10599.4
4566.29
7597.88
5710.01
3130.46
3007.5
442.873
703.924
15383.1
3717.83
20087.3
3103.84
3134.62
4185.48
1264.08
11838.5
11949.6
12035.9
1726.42
435.649
1599.78
1794.91
701.041
930.613
2630.45
1930.61
19797.6
9170.38
27030.4
2023.84
1551.39
875.195
3863.07
2385.92
2779.19
9728.25
2547.96
3917.13
3489.59
3679.38
2864.46
1289.49
3629.01
8786.28
1853.17
1487.42
3356.14
3842.32
23262.9
24393
21243.4
3586.34
9411.01
2107.62
4506.3
2495.14
1505.1
1639.56
3676.47
712.791
1586.24
2687.46
3125.59
1765.45
6463.71
4521.93
112.881
9392.96
8359
9600.69
5184.55
5533.43
1972.16
21338.1
19262.3
17462.8
749.064
2616.74
236.43
1083.63
1684.95
1318.24
3773.02
4313.96
5720.19
3165.87
2121.13
1852.42
427.29
2532.45
410.424
2200.15
457.618
250.497
441.159
2840.28
3912.27
2336.79
2438.63
552.719
789.613
2540.01
2148.36
476.473
452.206
6147.24
5472.31
6267.15
7630.07
4650.93
5090.1
210.434
514.872
8624.55
8164.52
7649.03
7057.31
7731.7
8545.62
2059.6
1986.68
6388.68
6553.7
6316.75
8205.29
4061.96
17029.1
7767.17
17287.9
10677.8
9252.82
9253.22
306.153
3043.63
2899.99
9725
9565.83
9541.29
9621.47
9652.93
10738
5973.37
6511.37
5811.14
18460.2
17084.5
17674
1617.52
2105.33
1376.44
1346.69
8290.89
6205.75
5246.01
4190.11
554.589
3811.32
367.496
9902.57
16815.5
10158.9
8859.23
2813.83
4442.75
4741.54
10284.4
4576.95
4706.21
12699.1
20195.1
28247.5
22639.2
20120.5
26649.2
4000.77
12087.9
4866.66
3706.94
7454.21
8818.01
6063.43
12439.2
12487.1
12302.5
2986.14
2971.63
2956.72
2974.6
8317.08
12387.9
22060.9
8167.02
11193.1
7868.89
4996.76
8029.2
2974.99
196.227
243.304
3539.18
6335.09
14114.3
841.158
863.432
4344.67
752.876
840.702
4819.25
395.286
926.624
3441.48
3516.01
3320.39
3477.3
1641.42
1268.47
1415.74
1599.89
635.936
351.461
141.845
257.962
361.884
22097.5
23939.5
27335.2
6030.42
5754.97
3662.96
1942.99
5617.45
5427.4
3199.82
3267.47
3133.61
3177.97
2963.15
2438.24
3692.94
3587.29
11866.1
4543.97
4708.28
4001.01
4429.42
11648.7
2993.6
11828.5
11768.1
11517.3
11745.4
3067.65
3129.9
11813.3
12030.7
11241
11511.5
3013.57
2653.87
3229.87
7736.96
7938.8
3366.43
8817.07
8229.94
8256.8
9756.39
9500.36
18021.9
14139.5
8960.9
14392
15557.5
7287.81
9769.8
8404.13
8486.68
7633.33
7932.28
8956.69
2797.06
2519.75
4600.11
5013.3
2426.68
9470.45
8856.14
3774.09
3509.51
3241.14
4281.35
12293
13160
11020.4
11602.6
4605.68
1219.26
3047.15
6643.26
6260.33
3222.08
7013.86
2939.39
9169.31
9524.47
11011.7
7530.73
8423.06
8493.46
5837.57
15892.6
15530.2
13172.1
14013.8
5462.45
2589.27
2404.37
4708.95
5093.79
4076.35
6366.52
5771.23
5438.5
1539.6
1669.59
396.628
332.301
1073.04
2873.99
2860.33
3218.98
363.743
164.111
1633.09
349.829
606.115
502.452
498.972
2924.3
965.475
1012.57
878.396
945.52
2808.75
2592.8
956.919
2702.95
2639.82
813.248
589.36
10517.6
4294.49
4869.08
4235.35
4218.92
10336.3
3082.1
4045.74
1407.44
8894.71
7484.49
7704.78
5798.24
6722.6
8460.01
2940.19
3024.25
10169.8
5097.25
4396.85
652.177
3720.16
1737.12
1746.29
1660.78
6219.54
6194.26
5723.41
5973.6
1979.87
3049.2
3084.55
8002.37
7258.54
7022.99
7679.58
7513.24
8611.31
4090.99
6410.3
3168.61
616.817
5438.78
5420.92
4539.6
4539.89
4585.99
4584.22
4278.71
8300.98
9514.52
5725.7
6826.42
1427.39
3286.88
2103.94
3500.23
3453.25
2812.15
2746.76
2953.91
2867.23
12050.8
12103.6
12320.9
1698.41
461.124
1613.88
2249.21
1171.83
8860.06
8131.77
8327.16
9457.33
539.965
1034.71
3337.49
2119.41
489.974
4071.83
2089.04
2729.47
4016.5
1917.24
1759.34
823.222
5880.5
92.9288
242.23
2872.07
154.44
808.769
3245.99
648.393
2805.21
3494.06
1083.03
1221.9
874.854
910.014
2152.78
1233.64
2444.69
955.309
1437.74
1032.08
1670.48
251.884
4975.83
116.051
159.305
4614.39
1598.56
1376.86
8742.98
2696.39
2128.32
4683.25
4376.02
2352.21
3970.7
5141.06
5377.9
3142.34
6154.87
4444.76
2297.31
11317.2
10863.7
3991.23
766.497
4384.05
6293
666.692
831.465
821.391
3262.06
2747.54
3129.25
10280.6
2569.18
3748.35
2794.57
7890.91
9458.86
1017.44
1608.66
2751.39
8462.97
8006.01
1828.52
1301.96
4508.74
340.254
4571.41
2999.15
11258.7
1430.58
3530.28
4029.79
4547.77
4967.6
12106.6
11342.2
11718.6
12070.9
11420.7
4302.54
3907.88
2114.96
10173.7
10998.8
2676.36
2632.5
4164.47
2757.81
7592.62
7607.09
8236.4
3139.34
2931.88
7296.7
2360.42
2504.2
5634.48
365.297
393.242
372.313
366.847
5914.46
420.798
344.645
5219.4
6001.52
401.166
394.689
377.152
399.994
5986.59
6433.16
379.726
375.457
391.455
381.024
6273.2
10218
9144.83
9057.63
8702.11
8855.59
10169.7
5116.7
860.968
5263.24
4401.04
1827.98
4847.4
7441.19
7011.08
1967.2
3112.27
591.748
655.338
2981.87
117.925
2676.88
2471.78
2787.05
3843.33
2819.78
1975.09
6032.36
6182.4
595.226
2511.47
629.301
1311.58
1954.8
2791.13
3197.69
1128
4117.53
3814.31
2891.2
1756.47
1377.55
3217.25
4997.81
1196.51
2346.4
2177.68
436.952
2474.63
455
307.698
421.305
2089.56
2236.05
2171.44
513.292
578.697
2444.37
2438.88
2914.42
2846.83
882.293
2361.69
777.25
854.15
652.805
749.82
2202.46
442.149
395.498
2944.11
992.734
537.319
1018.2
1037.24
3270.42
525.644
500.178
2415.63
2571.82
5956.38
5394.5
7233.45
6590.12
3335.98
3388.16
3282.89
3345.2
344.471
1048.58
4589.27
2129.39
1095.79
1260.15
2365.1
4567.17
3699.69
1332
1380.57
1646.17
3869.42
531.289
3188.45
3079.61
2212.68
2025.51
2617.5
2290.42
1849.76
1800.05
1981.65
1877.39
10137.8
14719.5
13515.8
7722.14
3173.55
9338.75
10645.8
10600.5
13063.5
12793.6
12054.1
2880.99
2779.51
3302.59
13878.8
5155.26
12888.4
8103.24
8013.79
8328.9
2363.06
2222.04
2533.57
2984.87
5311.84
5020.83
2487.18
3026.48
2426.56
4427.81
5683.96
5224.51
7781.38
7675.23
8040.76
21890
22650.3
22987.2
37054.5
34522.8
37903.6
34880.1
32724.9
28119.4
4273.19
11938
15018.6
32093
30008.4
32802.6
1384.93
1677.83
1592.89
2565.87
2757.29
2539.76
28058.2
27209.5
26944.4
2981.18
2987.84
2419.47
2118.08
1661.05
1053.16
137.597
333.935
2273.35
2377.35
2356.35
2795.78
2395.11
704.267
376.633
28590.2
30088.7
24863.3
10145.7
9980.59
9506.04
11355.4
10002.5
9287.83
10580.9
10635.5
9761.96
3776.06
3212.32
3036.88
1300.93
7182.51
8160.2
8247.54
1772.75
1048.83
1019.53
633.928
549.454
1060.44
1597.21
369.752
744.173
11572.6
11677.8
13142.1
1859.93
1519.51
1561.23
1329.38
790.443
1607.65
1659.83
1897.88
4721.73
1190.56
4577.05
4327.71
4337.5
5038.11
9543.8
3329.38
8600.26
4008.76
7747.15
7448.35
6875.25
2597.66
2425.13
2602.36
19711.2
21538.8
20225
515.818
991.609
404.771
868.278
12591.1
13991.4
4732.53
857.93
1451.55
810.774
10504
8409.65
8181.96
17955.5
17137.7
22183
1939.58
1980.04
1855.4
477.474
339.341
1547.91
1723.61
1802.47
13877.7
14559.3
15875.1
11816.6
13148.9
12734.1
244.562
2113.21
297.41
659.538
798.072
401.681
506.105
629.096
477.027
7596.47
9280.26
9683.65
499.996
416.475
2632.5
2644.38
2357.71
753.054
8143.95
7941.82
7868.36
17630.5
18215.3
18772.7
16925.9
17693.9
16927.7
4542.4
5172.24
5733.9
4102.08
4220.65
4139.24
13996.1
9409.33
9355.97
11135.4
9704.34
12605.3
9302.1
9348.19
11072.8
931.794
4377.95
4274.13
4145.02
2334.6
2318.91
2875.01
1001.17
8727.89
9505.37
10177.3
8208.68
1896.56
11244.9
10395.3
9586.61
8991.78
2382.56
2812.22
10002.4
2626.63
9886.74
10536.2
8920.53
2351.64
2207.25
2936.4
2982.45
29710.2
23447.8
24085.1
12807.7
12588.9
13368.4
12363.8
12775.4
12134.1
1743.79
5383.95
6480
5751.65
7459.34
8108.07
8326.01
6526.1
7633.78
5940.85
2518.31
3014.85
2325.9
2270.12
173.066
220.853
257.736
4080.44
2903.05
2523.78
12845.9
5068.09
13981
15448.8
13412.7
13115.5
14090.8
13759.4
16070.7
605.098
593.846
497.657
480.188
8303.88
7991.6
7930.42
3422.95
4197.41
4272.72
323.861
19514.1
19037.6
15006.9
5077.27
5404.03
4203.21
5399.4
5640.06
1913.91
17855.4
17922.7
19943.7
16952.4
14716.7
14419.4
15188.1
14935.9
16891.3
352.112
397.393
434.431
433.895
7973.85
7556.02
7457.52
2626.36
2398.21
2828.62
4408.55
4174.7
4902.2
4746.31
3248.27
3316.39
4950.88
5094.39
4215.57
4256.68
2641.6
3217.21
2824.11
1201.13
8888.64
9474.47
9048.12
5967.5
6723.96
6215.67
8498.71
8476.35
8710.57
8052.68
8211.7
8259.73
4334.65
5391.37
5543.62
949.911
441.724
402.987
3255.87
3168.62
3233.41
798.662
3133.28
2546.5
5474.99
5652.45
4925.56
6911.67
6716.91
7055.86
6012.17
6365.44
6539.37
2194.24
1041.71
1345.56
1365.64
3366.39
3459.58
1182.86
1594.13
6360.19
6805.54
6732.16
733.15
762.815
635.503
570.697
5513.59
6217.22
6011.97
9616.13
4221.61
8489.87
3939.08
3679.82
3986.25
1611.37
1448.13
1483.11
1771.25
1730.7
2261.27
2460.74
2050.83
6780.1
7164.05
7017.06
985.168
1259.61
1626.71
1934.93
7204.4
5913.65
4347.92
2864.16
2897.92
2950.53
2979.89
9793.24
10719.3
10737.4
1846.9
2223.15
3469.24
4157.5
3538.87
4288.12
4103.66
1683.32
5583.19
7047.67
6283.18
539.196
200.29
642.666
617.63
1455.44
1392.5
1452.63
1471.01
1522.46
1323.51
1667.26
2169.25
2044.88
2740.56
1569.99
9555.22
10411.6
11102.6
2912.96
1881.22
2919.03
3224.33
7445.27
6869.18
5589.52
7277.69
7658.32
8658.94
599.416
604.224
1478.13
1040.68
564.968
2803.64
2406.02
2374.92
315.827
252.645
177.416
146.572
12964.1
11477.9
11049.9
1221.95
1293.63
1790.25
2213.07
1880.54
3024.11
1267.21
946.36
1114.72
2100.78
2170.92
613.009
627.826
1732.63
4112.1
3021.26
1069.2
1487.21
8747.87
10038.4
9382.36
5208.76
4984.63
5131.51
4723.28
4484.45
4779.06
1460.18
4695.83
1821.55
2167.7
1729.55
7758.03
2997.2
7763.26
1795.48
1713.53
1878.14
1380.06
1227.94
2187.58
7379.01
7141.32
7662.02
573.64
457.497
5459.13
2431.33
2959.4
3832.92
3798.51
1756.17
1772.7
2317.64
1403.51
7383.07
7329.64
3098.35
2820.67
2362.95
1792.96
10549.3
9174.99
10596.6
10634.9
9801.12
8902.75
10897.7
10495.5
11182
3669.31
4622.34
4351.42
3736.2
3864.42
2769.8
907.009
556.178
11485.3
10932.7
9967.81
12068.3
11547
11530.3
564.948
576.305
1503.94
1154.6
6518.98
7970.12
9554.9
5055.87
617.321
4112.18
9683.06
10668.4
10314.4
6867.99
4415.45
544.438
8430.49
7265.59
8730.81
4866.58
2083.35
4288.81
4811.57
5300.51
2652.01
8038.69
7236.04
7838.74
6385.72
7188.94
612.504
672.487
2569.45
2620.79
7098.99
6938.29
8070.65
2053.9
2598.87
2821.61
567.349
830.922
429.45
469.005
1204.59
1115.02
977.005
609.52
1398.35
1080.41
1145.61
1018.23
6185.13
5836.92
5952.97
5433.3
5337.95
5669.14
4587.61
4997.26
5070.24
446.23
2313.88
487.58
938.493
893.168
557.299
591.073
957.67
962.83
1342.72
1311
981.441
651.137
693.947
2189.04
2150.62
3468.63
3505.33
7978.73
7965.67
8135.66
466.044
465.396
325.774
461.219
1498.53
1473.75
1284.22
7986.88
7834.39
7955.45
7362.63
7639.93
7818.36
4661.32
4840.61
4317.61
3080.33
4280.36
4356.7
4505.14
17521.9
15967.9
19142.2
3562.54
7267.7
1505.41
2377.69
5532.38
2288.01
10405.1
11142.7
9948.05
5392.96
6688.36
2743.89
4103.58
2024.2
2143.4
1835.67
1927.76
2982.52
2585.19
2464.03
6740.33
6585.6
6512.33
5227.78
6159.27
6550.41
1798.59
1730.17
1656.83
1070.47
1244.43
1015.31
1631.05
1849.47
1828.85
1898.63
1885.94
1635.51
2798.94
3466.01
3567.73
3390.47
3270.94
3727.33
2523.56
1674.94
1413.74
2452.5
1091.12
4285.86
3757.75
4166.77
2982.34
3770.92
1519.16
2424.57
1939.42
3841.9
2640.87
2690.93
2487.09
2566.69
3752.6
469.901
2140.82
2041.93
2898.68
3023.62
3150.13
2779.84
1839.39
1877.48
1764.51
1802
2716.83
491.876
453.245
54.4244
1169.52
1115.5
1131.7
3214.44
226.096
963.145
403.326
1640.87
1518.89
1204.45
492.802
488.3
412.059
2593.09
2994.95
676.862
694.071
428.338
405.142
4929.38
3379.45
10029.2
2425.37
2668.39
863.221
4774.61
4928.08
5125.3
3108.87
2398.93
2401.12
2386.95
2394.5
3061.59
631.73
661.884
5784.74
6013.44
4301.39
3118.3
2398.24
2390.41
2402.66
2402.09
3130.55
3496.76
3343.48
3986.1
2311.36
2300.29
2214.54
2318.55
1236.17
1074.97
1081.49
1746.53
415.125
441.979
360.543
380.515
580.935
359.25
340.441
883.187
441.906
1610.68
1129.76
802.46
1500.09
200.862
543.73
464.395
167.848
416.222
298.991
929.003
683.339
760.794
1434.03
1477.47
1896.72
2018.1
1709.41
1685.7
1495.09
1733.93
1820.1
1224.05
1479.22
1299.75
2735.61
3522.61
3163.81
3510.57
3567.23
2809.41
1562.55
1570.77
1379.05
1456.09
2399.94
1804.06
1178.06
1212.96
1235.93
1128.03
1432.84
2163.7
2606.56
2451.81
1923.77
951.291
3517.6
2427.81
2248.19
2678.63
2583.45
3735.18
4345.36
4906.08
3479.17
2957.49
2604.81
3955.69
2943.62
1211.94
2092.8
2137.22
427.07
1494.19
1296.43
2501.48
1970.09
1364.89
2634.54
2400.49
3248.62
715.493
640.12
555.832
1349.03
2769.15
1737.64
1829.03
2052.55
1883.86
2974.26
2518.74
2241.86
1203.77
55.2562
69.7207
1946.53
2124.11
1991.46
553.499
493.659
670.812
325.557
379.199
167.549
1614
1672.1
775.181
1255.35
888.989
759.156
1473.55
1591.4
1434.41
2965.05
3394.32
3055.84
2534.38
2974.19
2055.47
1448.19
1481.15
1326.51
1402.4
1973.47
503.842
2431.94
335.516
452.824
762.183
770.2
580.174
712.008
391.782
696.849
938.207
102.781
507.214
883.038
925.404
1041.49
856.516
650.853
469.262
461.242
331.965
449.604
415.52
491.255
1782.28
3759.47
1118.24
9554.43
9133.16
7962.84
557.997
3002.28
1992.35
2030.34
1915.39
1954.49
2954.6
1713.13
7534.96
3108.83
2795.81
2545.69
3021.17
2863.55
1750.43
515.767
497.854
589.972
453.085
1880.46
1141.45
604.222
980.639
433.083
448.008
1161.02
4012.21
4261.87
4356.8
2526.62
2296.02
2305.06
2489.69
931.895
1161.17
1831.78
1331.72
3286.63
2801.7
3424.9
543.874
3536.07
4440.23
2504.84
2816.99
9311.92
8952.85
7421.77
10582.6
10066.9
10254.9
548.26
3064.64
3058.33
508.495
10239.8
1764.35
6232.83
1728.84
1567.74
3491.25
2761.51
2440.55
4048.5
3602.57
4088.36
3112.57
2945.29
4710.74
4367.57
4402.62
4608.01
4212.68
4156.49
4364.9
4287.74
4663.76
3061.51
3090.97
4491.44
3000.63
12253.4
4853.16
2903.5
8515.13
7383.06
6240.72
2987.78
1046.84
1058.04
1018.13
1034.15
2985.26
2952.61
1088.36
1111.5
1067.14
1076.36
2964.76
9923.11
10094.6
8266.67
7078.1
8625.78
9358.98
4217.92
2394.89
2382.21
3016.41
1850.34
1809.04
1767.79
1819.04
194.505
448.004
4698.8
4848.88
4260.58
6174.55
5786.68
6088.71
583.754
669.594
515.207
3605.25
3288.53
4160.06
1101.78
721.419
887.322
1026.66
2421.17
2886.5
1484.59
3425.86
830.417
921.04
577.724
552.348
3480.64
3037.3
2972.63
3156.9
3077.21
3476.18
3401.6
2818.79
2698.78
2962.23
2833.17
3391.92
530.677
524.379
1330.38
1304.83
1392.4
1519.52
1614.44
1186.46
1203.8
1272.42
1454.62
2021.19
2166.45
1822.75
1885.64
1550.81
867.959
1176.94
1000.12
302.081
275.269
351.545
363.443
2186.81
2260.65
2028.97
376.228
413.431
3224.14
2723.22
2729.88
2700.87
2709.05
3241.62
3137.26
2737.91
2757.37
2734.63
2739.03
3154.96
396.837
419.917
2783.65
2408.42
3713.31
3665.76
4642.77
5108.87
5031.95
5154.82
5168.98
4710.26
4171.02
4714.09
4573.59
4931.54
4834.29
4307.19
4575.08
4538.32
2918.12
3138.99
4644.59
4603.72
4751.82
4836.02
3220.11
2838.6
4472.94
4636.34
2746.57
2871.89
3577.66
3757.27
3669.73
1508.41
2800.26
2827.72
6785.83
7227.68
7636.88
796.109
840.778
743.05
776.995
811.923
747.417
846.217
847.299
1070.57
1136.66
922.302
893.96
1148.6
1114.55
1311.51
1327.2
3004.37
1498.13
1005.43
2266.84
766.744
4058
4063.43
4376.46
3401.07
2354.79
2420.84
2241.97
2297.31
3311.31
5102.75
5158.51
3988.17
4615.84
4962.1
5080.54
775.819
3289.95
3169.68
3163.29
3269.37
3170.93
3050.54
2763.76
3351.34
3322.12
6696.35
6673.52
5979.98
5182.68
5949.9
6147.89
2526.34
1692.64
1728.33
1624.62
1658.37
2464.87
2012.04
389.871
606.817
589.951
630.321
610.02
346.651
1185.72
1289.23
1061.79
3255.59
316.197
237.759
442.7
559.661
496.093
723.207
652.346
540.412
500.397
501.049
984.736
1167.71
1140.61
1207.39
1185.89
1001.03
901.844
1065.19
1036.33
1117.73
1090.69
924.571
755.914
313.669
567.592
603.011
816.247
764.31
4437.75
4895.66
4768.24
5297.43
5119.03
4615.31
4181.49
4659.35
4700.16
4686.35
4648.41
4172.8
3233.8
3025.7
2726.11
4331.77
3870.39
3720.08
1192.91
1561.5
2947.22
2408.92
2387.01
2582.12
2472.16
2971.13
4896.92
5257.16
5316.19
4873.69
5065.56
4633.03
2458.34
1953.55
518.807
2766.48
3783.07
3401.68
2966.28
1692.9
1691.31
2280.77
1977.44
1547.04
2120.25
2582.35
2480.52
3046.21
2370.54
2413.78
2378.65
2364.11
3063.61
3320.79
2545.64
2505.17
2615.67
2903.36
3112.73
1127.72
1215.82
856.648
2871.23
2856.05
4525.12
4071.67
4095.02
4110.84
4074.1
4523.78
4640.25
4241.27
4208.09
4140.46
4197.66
4613.9
2933.9
2903.87
931.868
927.854
2024.99
1724.59
4158.75
3096.36
3365.66
3947.75
4362.77
3820.29
3581.32
1472.05
637.404
559.032
3025.51
2943.57
3096.09
2064.41
2698.06
2838.98
3503.81
3201.63
3178.24
3181.25
3196.99
3477.68
653.607
619.838
2783.64
923.861
941.031
920.771
915.17
2725.41
2927.75
985.199
1001.57
953.396
970.514
2898.65
494.066
494.953
463.006
479.828
1644.98
1041.85
1044.82
904.07
843.843
539.771
495.898
934.562
1607.86
1524.41
1663.8
1004.58
1311.87
2492.85
1839.62
1555.56
1390.37
3769.3
3664.34
3435.3
3655.01
777.808
721.256
606.628
820.578
776.819
964.224
577.554
524.292
467.057
720.808
744.078
215.471
313.311
3968.92
2715.26
2812.72
566.856
2731.34
3677.46
3648.68
2761.68
2476.57
2766.6
2768.6
3936.28
163.797
194.214
1877.83
1347.11