/*--------------------------------*- C++ -*----------------------------------*\
  =========                 |
  \\      /  F ield         | OpenFOAM: The Open Source CFD Toolbox
   \\    /   O peration     | Website:  https://openfoam.org
    \\  /    A nd           | Version:  dev
     \\/     M anipulation  |
\*---------------------------------------------------------------------------*/
FoamFile
{
    format      ascii;
    class       volScalarField;
    location    "800";
    object      yPlus;
}
// * * * * * * * * * * * * * * * * * * * * * * * * * * * * * * * * * * * * * //

dimensions      [0 0 0 0 0 0 0];

internalField   uniform 0;

boundaryField
{
    inlet
    {
        type            calculated;
        value           uniform 0;
    }
    outlet
    {
        type            calculated;
        value           uniform 0;
    }
    ground
    {
        type            calculated;
        value           nonuniform List<scalar> 
5358
(
44566.7
44567.8
44567.9
44568
44568
44568.2
44568.3
44568.5
44568.8
44568.8
44568.8
44568.5
44568.3
44567.9
44567.7
44567.5
44567.4
44567.3
44567
44567.1
44567.4
44567.6
44567.5
44567.6
44567.6
44567.7
44566.4
44566.6
44566.7
44566.6
44566.5
44566.5
44566.4
44565.3
48110.8
48109.4
48109.3
48109.2
48109.1
48108.9
48108.3
48108.9
48108.4
48108.1
48107.8
48107.3
48106.5
48106
48106
48105.7
48105.1
48105
48105.6
48105.7
48105.7
48106
48106.6
48106.2
48106.9
48107.4
48106.7
48107.6
48107.5
48107.7
48107.9
48108
48108.1
48109.4
50579.1
50577.5
50577.5
50577.4
50577.4
50577
50577.3
50578.1
50577.9
50577.8
50578
50578.2
50578.5
50578.7
50578.7
50578.5
50578.6
50578.5
50578.3
50577.9
50577.6
50577.5
50577.5
50576.6
50576.9
50577.8
50576.3
50576.5
50576.1
50576.4
50576.6
50576.7
50576.6
50578.4
51870.3
51867.6
51867.1
51867.4
51867.5
51867.1
51867.9
51867.8
51867.7
51867.8
51867.7
51868.3
51868.3
51867.9
51867.9
51867.3
51866.8
51866.8
51867.1
51866.6
51866.8
51867.7
51867.8
51867.7
51867.6
51868
51867.2
51867.5
51866
51867.1
51866.7
51866.8
51867.1
51869.8
52383.7
52380
52377.9
52377.5
52377.3
52376
52376
52374.1
52373.3
52371.3
52369
52365.1
52362.5
52360.2
52358.6
52357.1
52355.4
52355.8
52357.5
52361.2
52363.5
52364.8
52366.7
52368.9
52371.3
52372.7
52373.6
52375.6
52376
52377.7
52376.8
52377.5
52379.4
52382.7
52437
52433.1
52428.4
52426.5
52426.1
52422.5
52418.9
52413.6
52408.2
52400.6
52393.3
52384.8
52374.6
52364.4
52358.9
52353.8
52351.1
52353.5
52359.2
52365.8
52373.9
52382.6
52390.1
52397.4
52403.6
52409.2
52413.6
52418
52421.6
52424.7
52425.5
52426.6
52431.3
52435.1
52230.4
52225.3
52218.8
52214
52211
52204.1
52195.7
52185.1
52173
52158.3
52139.4
52115.2
52092.2
52068.6
52050.1
52039.1
52035.4
52042.1
52055.9
52076
52095.3
52111.7
52128.8
52144.5
52160.1
52173.1
52183.5
52193.4
52201.9
52207.8
52211.7
52215
52222.2
52225.9
51885
51880
51870.5
51861.6
51854.3
51843.5
51828.4
51809.2
51784.9
51754.5
51719.8
51679.9
51627.5
51572.9
51533.2
51511.4
51508.4
51523.6
51551.1
51587.6
51627.7
51665.9
51700.6
51731.9
51760.1
51785
51806.3
51823.5
51838.5
51849
51855.6
51863.1
51873
51877.9
51474.6
51468.7
51455.7
51442.9
51429.5
51413
51389.8
51358.7
51322
51275.5
51211.3
51128.7
51051.5
50981.2
50925.2
50893.9
50890.2
50910.8
50948.5
50996.5
51047.5
51103.7
51163.6
51220.2
51269.9
51313.5
51348.8
51378.2
51402.7
51420
51431.2
51444.1
51456.6
51463.1
51042.4
51034.6
51020
51001.5
50981.4
50955.6
50923.9
50878.8
50819.8
50746.2
50667.6
50571.3
50460.4
50349.9
50256.7
50205.1
50198
50226.3
50286.9
50360.9
50438.8
50516.9
50592
50660.1
50726.7
50796
50859
50905
50939
50964.4
50982.3
51001.2
51017
51025.1
50613.5
50604.3
50587.9
50564.7
50537.2
50501.1
50454
50396.4
50328.8
50257.7
50169.1
50049.1
49895.9
49734.1
49588.3
49488.3
49443.8
49464.2
49556.3
49668.4
49789.3
49904.2
50010.8
50106.2
50190.8
50269.3
50347.7
50420.1
50471.3
50507.1
50535.7
50560.4
50579.9
50589.6
50202.8
50192.6
50174.2
50147.8
50113.2
50067.7
50008.9
49954.1
49891.8
49826.5
49767.4
49800.5
23293.8
22957.6
22473.7
22125.9
22162.3
22506
22744.6
22923
23092.9
23260.9
23411.2
23538.6
23642.3
23726.1
49899.8
49956.6
50016.6
50067.4
50106.4
50137
50160.4
50171.7
49818
49807.6
49787.8
49758.9
49719.1
49667.4
49616.8
49565.8
49514.3
49488
49580.7
50216.2
22463
23847.1
10206
9703.95
7457.07
11237.4
21106.9
21135.1
21398.5
21707.8
21956
22163.2
22323.4
22444.6
49532.1
49545.3
49602
49656.2
49704
49740.7
49767.3
49780.2
49463.3
49452.7
49432.1
49402.1
49359.5
49314.2
49269.9
49222.6
49186.2
49215.4
49520.1
50932.1
24436.5
32379.3
9526.39
7115.66
9531.27
25286.4
21829.8
21109.7
21562
21856.8
22051.4
22189.3
49236.6
49185.3
49237.4
49288.8
49336.2
49376.6
49405.3
49419.5
49139.5
49128.2
49108.5
49078.2
49038.4
49000
48957.4
48910.2
48880.8
48934.4
49363.8
51271
25298.6
13559.7
22118.8
12207
12577.8
3396.2
12992.3
13836
36816.7
23627.6
21881.1
22043
22207.7
48986.1
48875.8
48918.1
48968.1
49010.5
49047.6
49076.2
49091.5
48844.9
48833.8
48815.4
48786.2
48752.2
48716.3
48670.6
48618.1
48578.8
48610.7
49074.3
51375.2
26108.8
8297.18
2352.45
3722.04
5334.98
3733.4
2519.67
4976.8
4096.59
33456
25788.9
22555.5
22118
22257.6
48749.7
48609.3
48640.7
48686.9
48725.6
48756.2
48780.6
48795.9
48577.1
48567.1
48550.3
48523.1
48493.2
48456.4
48405.8
48344.2
48281
48269
48798.9
51670.9
27177.8
8107.09
27400.6
27900.4
22221.8
42109
30733.1
22794.5
22391.2
22312
48499.9
48370.1
48395.4
48437.3
48474
48498.6
48517.4
48530.3
48333.2
48324
48309.2
48284.8
48256.8
48217.7
48162.2
48089.4
47996.9
47953.7
48632.2
52079.1
28045.2
15775.3
13439.4
17423.6
9213.56
35126.3
29404.6
22696.3
22409.3
22379.8
48232.7
48141.1
48171.5
48211.2
48245.9
48268
48281.9
48291.8
48109.6
48100.7
48088.3
48065.7
48037
47995.3
47935.2
47851
47726.2
47650.4
48406.4
51923.4
27882.3
26969
1441.1
2101.62
20045.8
31464.8
17796.7
29037
26945.9
21697.4
22238.3
22443.7
47956
47911.6
47957.3
48000.8
48035.2
48055
48066.1
48075.1
47901
47893.6
47882.5
47859.5
47829.2
47784.4
47718.1
47619.7
47454.8
47321.6
48039.8
51277.6
27297.2
25019.7
6300.6
2206.68
1336.82
2310.02
2517.97
26810.4
27284.7
21733
22582.2
22482.2
47670.5
47680.7
47748
47797.5
47834.3
47854.2
47866.7
47874.9
47704.9
47697.5
47685.6
47662.3
47628
47578.4
47503
47386.9
47173.7
46953.5
47537.3
50318.8
26422.5
24145
17834.7
2240.72
1828.64
7186.96
19424
24158.4
33290.3
28810.2
22413.7
23672.8
22481.7
47378.6
47449.1
47541.5
47598.1
47639
47663.8
47677.5
47686.5
47517.9
47509.9
47497.5
47473.6
47433.3
47375.1
47288.9
47151.7
46885.7
46553.6
46936.6
49232.5
25437
23567.2
16846
12667.1
14247.9
13500.3
17169.9
16638.6
26279.9
35111.6
29447.4
23471.6
25185.8
22427.5
47088.5
47221.2
47338.4
47404.3
47451.5
47480.9
47496
47505.8
47336.8
47328.5
47315
47290
47245.3
47176
47074.6
46915.4
46599.4
46146.7
46294.5
48143
54014.2
51746
49934
43613.7
40494.6
36517.7
32189.8
49079
66343.8
76045.2
64634.4
61512.3
54793.3
47183.9
46826.1
47008.6
47146.9
47219.3
47271
47302.2
47319.2
47329.7
47160.4
47151.6
47136.9
47110.1
47061.9
46983.3
46865.9
46677.3
46314
45751.5
45681.7
47015.4
52813.1
52492.2
53666.5
51974.8
47368.3
42100.3
40243.5
51418.9
63828.5
71097.3
62324.9
59666.9
53773.4
46860.7
46595.5
46815.7
46962.4
47039.1
47093.8
47127.2
47145.9
47156.4
46987.3
46977.9
46962.9
46935.3
46883.1
46798.6
46666.9
46449.2
46039.6
45379.2
45106.6
45894.7
51440.5
52899.2
55933.5
56202.3
51998.9
45408.5
43831.1
53567.4
62809.6
67737.9
61755.1
59205.3
52933.1
46614.4
46379.1
46629.1
46779.5
46861.9
46918.8
46954.1
46973.1
46984.6
46816.5
46807
46790.8
46761.6
46706.2
46615.6
46471.8
46230.4
45777.7
45032.7
44577.8
44848.4
50042.1
52427.7
56612.3
58515.3
54490.2
47102
44838.4
54883.7
62373.7
65412.6
61582.1
58707.4
52206.8
46414.7
46176.1
46446.2
46598.9
46685.6
46745.5
46782.3
46801.8
46814
46649.4
46639.1
46621.8
46590.4
46531
46434.8
46282.1
46020.2
45531.9
44717.4
44102
43907.7
48689.5
51161.5
56253.8
59857.9
56404
48536
45025.1
55616.7
62122.8
63735.9
61239.5
58033.4
51571.7
46244.3
45988.4
46268.1
46421.7
46511.1
46573.5
46611.9
46632.6
46645.5
46484.6
46474.2
46455.4
46421.5
46359.4
46258.4
46098.8
45820.9
45305.9
44437.4
43685
43086.7
47428.2
49449.6
55554.5
60546.8
57483.7
49230.8
45303.4
56008.2
61897.1
62491.9
60664
57268
51014.1
46094.9
45815.8
46096.6
46248.1
46339.5
46404.3
46444
46466
46479.1
46325.2
46314.2
46294.1
46258
46193.8
46089.8
45925.5
45636.7
45101.8
44195.1
43328.1
42384.7
46271.1
47687
54946
60885.6
57921.5
49540.3
45461.9
56125.9
61617.9
61498.3
59938.5
56478.2
50519.3
45961
45659.1
45935.4
46082.9
46175
46239.6
46280.9
46304.8
46317.8
46167.7
46156.5
46135.2
46097.5
46032.2
45926.8
45759.2
45465.8
44919.6
43988.2
43028.7
41798.9
45253
46149.3
54747.6
61225.5
58262.8
49815.8
45609.2
56147.6
61366.7
60704.9
59181.5
55723.5
50080.4
45841.3
45518.6
45783.4
45923.7
46015.1
46079.3
46120.5
46144.9
46158.3
46023.1
46011.7
45989.7
45951.1
45885.4
45780.3
45611.9
45316.6
44764.7
43817.6
42784.6
41314.8
44344.1
44868.4
54548.6
61154.8
58141.2
49736.1
45429
55862.9
60888.6
59882.9
58327
54956.4
49673.7
45736.6
45398.6
45650
45781.6
45871.3
45933.1
45974.6
45999.1
46012.3
45873.8
45862.6
45840.5
45801.8
45736.8
45633.4
45466.8
45174.7
44625.9
43676.2
42588.4
40944.8
43588.7
44237.4
55216.2
61854.1
58921.2
50223.9
45974.8
56041.7
60745.5
59342.9
57666.7
54315.8
49316.1
45639.7
45289.4
45522.1
45641.2
45726.3
45784.9
45824.5
45848.6
45861.1
9801.28
9804.7
6560.29
23196.9
16770.5
11156.8
23445.3
9642.13
3667.54
16697.4
1412.77
7848.01
12200.5
1887.72
1140.86
1439.9
2700.09
26169.5
5753.99
914.775
13252.8
1759.11
4135.4
22797.2
13788.8
1762.69
3896.22
4873.95
9627.1
3000.39
26941.1
4383.8
9730.26
3263.25
7393.1
19571.4
3070.76
8863.5
20706.4
28556
8443.39
3126.18
21898
46673.6
18600.2
16134.6
432.447
1092.7
11847.7
668.384
10262
10523.4
9621.16
21596.6
12920.8
1770.75
19878.7
415.984
2562.27
3877.24
1659.78
5296.23
14867.2
11722.2
1457.58
316.871
2249.23
1612.49
218.782
431.822
6916.37
7041.22
8422.4
7878.88
11641
28133.4
8400.53
472.713
15598.6
6068.49
457.093
14371.1
16164.1
3902.34
8573.46
5627.9
12047.2
16399.3
664.841
8130.89
13831.9
17921.6
15888.8
5414.6
4004.35
22051.8
10074.4
21666.4
22289.9
9907.49
11306.7
13164.4
5061.15
21464.1
13958.7
10653.6
21059.2
21155.6
12937.7
19998.8
34973.6
13918.1
716.848
7672.81
4305.26
2883.28
1311.95
5956.46
9391.02
11159.6
9503.77
2388.63
8264.5
1515.82
25315.8
29885.9
24106.9
20932.3
39441.2
29192
13161.2
14132.7
25729
12127
1266.04
4817.49
12233.2
8383.86
4783.46
1968.57
2972.11
330.11
13317.3
3874
13505
7953.53
27853.4
26912.4
31421.1
14741.3
16491.4
26597.3
8207.68
12402.5
4097.26
3881.75
12980.3
59077
25692.5
4422.14
17178.1
18873.4
4031.12
4561.22
4363.7
14559.2
40853.1
19938.5
16794.7
16631.9
27723.7
7898.94
2279.29
2420.9
12036.5
11376.1
28838.8
2772.28
3435.56
10966.1
3503.15
2765.81
7431.08
9234.82
1970.56
22907.4
8675.88
11688.5
4865.48
29336.3
14030.2
9789.32
7995.46
2764.43
2211.71
3654.83
4092.06
8778.33
22689.9
8717.62
8074.65
4241.83
4484.97
25752.1
1075.44
21577.6
3275.02
2485.8
23029.3
4247.4
3419.66
38670.7
13346.9
4656.04
7245.81
6125.54
4401.3
6021.59
13671.7
2192.58
1837.35
7951.47
6630.57
997.903
3401.47
1764.41
3852.66
3117.96
2641.38
6239.91
15406.1
17583.6
2917.58
6240.22
7665.61
2673.58
10788.6
10327.7
5263.85
12505.7
8929.2
5859.61
10303.8
7049.66
4162.74
1498.56
852.16
22197.6
1254.61
1861.64
7451.24
8884.9
24209.8
7152.05
1552.66
7508.37
23430.4
9755.18
2664.6
625.093
13418.9
2221.3
5790.95
12187.4
1300.19
1248.53
1687.06
2838.08
1642.44
10350.3
110.822
12758.6
1473.8
9083.93
827.901
3089.41
12928.1
1693.97
3512.82
1518.78
5988.45
16164.7
14705.4
6434.99
5364.59
3553.35
5210.77
4407.85
3108.16
3458.62
1924.23
6158.32
4407.91
7835.87
2847.3
13703.7
4184.13
4314.39
7375.91
1208.37
24214
7967.98
4479.15
13105.8
4550.91
4009.18
3779.57
1739.33
7843.08
2113.73
1732.66
1978.73
2993.99
7810.78
1585.19
10942.4
2971.09
2095.14
6029.21
2559.91
21660.9
2233.96
5274.53
3670.05
11879.7
9693.35
11442.3
3331.19
2352.55
29234.7
10646
3624.33
9566.35
8684.95
8116.03
7249.02
5493.11
6251.23
6453.6
5437.05
22658.4
22824.7
9060.79
6029
5707.38
6391.78
6134.74
5462.7
21726.8
8855.91
9656.95
9929.92
14924.1
4861.21
3220.46
2610.91
4804.6
1369.16
6714.4
8601.64
7655.71
15468
13667.2
3589.3
2884.22
9374.35
7171.28
9644.59
23030.3
5341.08
12129.7
13676.2
15193.5
2400.48
7885.99
15037.5
8135.09
2258.56
748.82
2281.71
893.549
1163.02
2094.23
587.101
3500.82
12409.2
1270.57
6576.2
4306.88
5747.16
4654.76
462.845
2216.88
473.691
2037.69
577.888
6190.99
8432.96
6049.33
5742.27
590.316
980.792
5606.55
5936.99
2490.58
2013.42
2462.92
3157.07
6970.44
6845.74
2691.57
13696.3
8178.7
4825.66
4550.36
1465.09
4538.2
8017.06
7549.94
4421.83
3484.41
4400.57
22295.7
21633.7
21835.7
26182.2
20417.7
29964.5
10309.3
10724.7
13036.2
7083.85
9054.29
7934.77
9089.62
6088.36
5918.27
26681.4
10307.7
3451.7
12267.1
12429.7
12343.1
11365.3
5440.74
2847.57
14232.1
6110.43
5036.34
5263.51
4459.52
1457.2
683.095
1666.33
1624.64
6811.45
18197.1
17105.5
8285.76
9486.51
3474.21
5966.61
15667
14825.4
3489.19
3106.78
3691.88
2602.15
4421.56
4305.76
17961.4
16164.2
18252.8
1207.34
8439.6
10104.3
3823.15
3603.11
4148.86
8184.56
6165.6
3024.52
15277.2
12542.3
15698
2825.43
2640.63
9729.85
21594.8
24529.8
3754.53
4857.7
5553.33
1030.14
317.139
1436.08
3488.37
3325.91
978.756
3216.44
97.792
1397.88
504.322
485.185
4262.44
9175.54
2512.63
6289.4
6545.37
7499.72
2860.4
1146.16
15729.9
14459.1
17463.8
21772.7
21645.1
17789.8
15917.1
16226.7
9999.83
550.741
387.623
8621.81
10603.5
4564.93
7601.6
5713.18
3128.55
3006.21
442.627
703.559
15461.2
3722.86
20066.1
3102.03
3132.62
4179.04
1268.21
11845.8
11959.1
12042.6
1769
413.252
1673.76
1762.55
711.109
949.04
2675.25
1988.02
19839.9
9169.66
27074.8
1976.81
1558.26
1056.84
3732.08
2394.64
2790.98
9797.97
2227.88
3523.73
3474.3
3605.89
2855.92
1280.79
3690.49
8794.46
1854.55
1493.21
3362.99
3850.85
23252.1
24433.2
21272.1
3583.52
9410.84
2107.93
4524.2
2503.57
1500.21
1635.7
3654.56
708.243
1591.93
2694.36
3134.62
1861.93
6590.03
4860.77
110.796
9355.1
8364.67
9653.8
5161.43
5507.8
1978.15
21330
19244.8
17453.5
738.502
2599.91
233.963
1112.62
1653.51
1322.36
3775.62
4317.93
5724.72
3163.69
2108.05
1839.81
419.102
2453.7
400.257
2251.04
482.984
258.985
436.772
2844.64
3904.73
2319.91
2387.22
542.254
770.605
2448.51
2074.55
477.497
449.727
6128.77
5419.78
6213.97
7625.23
4614.58
5068.67
223.322
548.421
8618.9
8193.19
7667.9
7027.16
7753.14
8499.5
2026.74
1962.83
6511.14
6718.35
6355.07
8183.51
4077.85
17031.7
7768.25
17286
10426.3
10251.8
9582.43
354.268
3016.31
2880.99
9727.72
9565.55
9541.44
9621.86
9653.58
10742.9
5976.98
6516.64
5814.47
18480.4
17094.4
17670
1615.68
2105.17
1378.33
1344.82
8300.56
6208.81
5249.4
4187.56
554.853
3809.02
368.929
9901.32
16809.4
10155.1
8860.62
2813.61
4442.69
4741.42
10284.7
4577.1
4706.17
12692.8
20200.8
28261.5
22672.3
20162
26689.7
4070.24
12091.4
5913.46
3789.04
7622.94
9022.49
6372.46
12441.5
12486.3
12302.1
2985.36
2971.68
2955.69
2973.65
8311.02
12394.1
22070.9
8154.41
11202.3
7849.63
4998.89
8059.12
2972.44
213.744
262.707
3538.44
6335.66
14119.3
840.97
863.045
4343.69
752.718
841.337
4819.8
395.942
927.577
3427.96
3499.47
3316.03
3467.78
1698.29
1238.62
1534.02
1651.32
633.132
414.761
214.354
300.473
427.874
22413.8
24175.1
27425.4
6107.06
5885.09
3787.37
1855.91
5596.43
5447.21
3205.4
3273.63
3136.9
3183.14
2926.01
2400
3690.54
3582.96
11875.3
4536.63
4702.83
3989.58
4421.33
11643.3
2996.38
11841.2
11786.9
11519.6
11748.6
3070.49
3143.86
11863
12075.5
11271.9
11557.9
3028.27
2665.79
3246.35
7753.08
7947.72
3366.07
8832.36
8242.7
8287.76
9764.64
9513.7
18272.2
14422
8993.47
14657.5
15799.8
7336.15
9847.49
8470.27
8560.8
7697.7
7991.39
9023.04
2782.51
2496.03
4600.65
5041.87
2428.84
9467.83
8852.3
3777.66
3479.31
3208.08
4352.55
12609.1
13450.2
11218.1
11895.8
4693.76
1244.84
3032.66
6642.55
6344.77
3173.1
7030.81
2937.79
9118.59
9459.72
10980.1
7572.25
8472.13
8513.4
5845.19
15915.5
15555.8
13174.8
14024.3
5459.62
2578.28
2393.34
4859.34
5203.63
4166.79
6473.43
5886.63
5571.08
1512.99
1700.9
389.963
301.852
1017.07
2893.16
2772.19
3211.86
358.636
162.065
1619.55
344.562
599.466
518.497
508.976
2941.82
977.418
1036.12
879.182
954.145
2809.3
2692.96
967.376
2732.41
2717.14
813.511
589.553
10520.4
4294.46
4869.56
4234.69
4218.76
10338.2
3081.7
4046.02
1406.14
8890.87
7481.41
7701.06
5798.34
6720.96
8457.73
2939.26
3023.74
10170.8
5095.79
4396.07
651.843
3718.27
1742.35
1751.19
1655.24
6214.87
6190.01
5721.34
5968.98
1976.9
3048.67
3082.95
8000.31
7256.3
7022.19
7675.8
7510.07
8607.87
4098.16
6419.58
3168.9
618.995
5439.02
5422.2
4539.7
4540.04
4586.01
4584.31
4272.96
8147.06
9498.59
5613.17
6629.45
1441.16
3270.44
2143.84
3481.42
3431.74
2813.78
2748.04
2954.29
2868.73
12057.5
12112
12326.8
1732.55
458.979
1701.08
2217.2
1195.1
8856.27
8126.57
8329.66
9457.64
561.059
1047.02
2965.38
2208.8
510.8
4073.22
2091.78
2729.79
4018.41
1977.11
1760.37
856.853
5869.03
72.8261
282.268
3858.58
107.641
840.632
4422.03
697.084
4407.83
3491.57
1071.75
1210.76
857.545
884.033
2521.92
1199.41
2728.59
940.696
1550.63
1205.47
1688.78
255.386
5127.97
180.472
160.9
4662.96
1602.69
1438.33
8872.3
2708.97
2146.51
4378.91
3750.87
2533.69
3981.34
5018.74
5332.54
3151.98
6179.58
4484.95
2237.99
11343.9
10897.5
4034.77
759.491
4373.78
6633.08
683.298
907.985
893.313
3233.04
2751.32
3132.54
10223.6
2552.57
3735.48
2775.71
7820.41
9396.49
1009.68
1593.21
2713.16
8424.01
7968.48
1818.84
1294.49
4538.86
338.823
4566.46
2997.6
11288.5
1431.7
3528.77
4041.48
4565.82
5001.56
12135.3
11365.5
11745.2
12104.5
11489.3
4317.85
3958.33
2115.33
10182.2
11013.6
2676.41
2634.25
4177.69
2759.11
7639.4
7644.12
8286.71
3136.63
2931.47
7316.44
2371.27
2517.75
5659.59
368.639
391.937
375.747
371.333
5957.54
417.548
344.359
5212.48
5991.12
403.114
396.971
377.505
401.949
5972.47
6449.48
382.341
378.45
394.006
383.761
6281.42
10316.1
9247.98
9144.26
8780.81
8932.35
10258.3
5157.84
872.318
5311.86
4416.92
1839.49
4868.28
7485.83
7086.4
2011.16
3114.4
600.713
645.68
2959.76
114.975
2681.14
2478.06
2778.34
3847.89
2814.4
1986.18
6019.9
6158.7
585.762
2471.64
627.966
1349.46
1908.31
2791.78
3206.2
1131.74
4110.5
3809.57
2888.26
1754.7
1376.6
3214.5
5005.97
1196.1
2334.88
2164.89
423.632
2403.15
443.341
306.455
467.025
2158.65
2194.18
2116.77
507.412
569.695
2390.38
2384.93
2800.33
2740.45
861.527
2339.01
772.871
853.251
646.15
745.174
2178.44
438.712
389.886
2979
1032.79
546.454
1046.44
1076.77
3323.3
554.96
519.311
2409.76
2634.17
5953.8
5394.54
7234.53
6589.26
3341.87
3386.29
3289.04
3350.7
354.551
1133.9
5234.35
2430.33
1174.12
1389.65
2670.41
4941.8
4061.74
1419.2
1462.51
1771.37
4348.23
550.126
3155
3049.84
2211.33
2022.17
2625.18
2289.71
1842.9
1791.58
1977.53
1871.06
10141.3
14729.5
13523.9
7726.17
3173.5
9338.34
10645.9
10600.9
13070.7
12802
12061.2
2875.8
2774.79
3298.63
13882.6
5157.06
12888.1
8088.57
7983.49
8333.31
2388.42
2259.54
2504.86
3055.04
5535.34
5225.5
2750.12
3432.27
2863.36
4583.72
5828.83
5316.29
7793.02
7686.36
8048.74
21817.5
22578.7
22913.9
36959.8
34571.4
37948.2
34749.2
32562.7
28061.9
4376.26
11995.8
14927.4
32106.4
29991
32581.9
1401.56
1703.13
1619.59
2588.15
2742.46
2485.02
28007.6
27004.7
26337.9
2974.33
2990.9
2419.07
2120.52
1648.96
1046.66
142.076
336.84
2284.13
2372.75
2294.5
2704.37
2339.98
735.085
384.829
29020.3
30182.2
25398.4
10148
9983.93
9504.89
11360
10006.7
9296.94
10581.4
10635.9
9762.24
3771.49
3206.5
3031.09
1297.97
7215.73
8144.61
8230.84
1822.24
1105.37
1119.81
661.057
589.522
1023.68
1639.74
378.715
745.258
11581.4
11684.3
13150
1844.81
1483.21
1523.72
1330.52
802.253
1569.06
1621.36
1823.2
4811.38
1200.78
4664.51
4425.1
4476.91
5148.44
9511.68
3312.9
8566.95
4023.61
7760.87
7456.78
6879.29
2597.72
2422.12
2600.91
19633.1
21480.6
20178.3
547.833
998.721
405.542
875.408
12793.1
14045.5
4715.27
941.707
1668.6
814.183
10544.2
8440.23
8207.94
17995.1
17177.9
22246.6
1947.03
1990.49
1861.54
468.787
337.957
1554.27
1731.72
1812.17
13684.8
14420
15748
11674.3
12994
12518.9
236.442
2038.76
290.299
667.056
801.769
408.776
493.373
610.79
463.211
7749.46
9486.33
10074.2
490.807
411.309
2666.33
2679.7
2377.32
730.886
8150.87
7950.35
7879.27
17474.9
18066.2
18641.6
16800.3
17563.3
16753
4550.75
5184.36
5745.92
4101.29
4223.43
4134.87
13994
9413.06
9359.52
11143.2
9710.43
12605.8
9305.41
9351.31
11066.7
930.02
4375.61
4271.33
4142.76
2333.52
2317.35
2873.68
1005.2
8728.48
9503.16
10170.8
8211.67
1895.98
11247.9
10395.6
9586.76
8992.03
2382.78
2812.39
10001
2626.33
9886.73
10535.9
8919.77
2351.85
2207.32
2937.05
2983.01
29727.7
23460.6
24107.6
12817
12601.4
13429.5
12359.5
12774.6
12129.4
2309.15
5551.47
6725.37
5972.98
7454.8
8107.99
8326.74
6455.62
7594.28
5866.81
2547.84
3011.06
2319.9
2262.18
171.959
232.536
257.237
4077.08
2901.14
2522.41
12854.5
5071.86
13995.4
15420.9
13413.5
13126.8
14083.5
13755
16024.9
600.533
588.384
494.298
477.749
8311.49
7976.42
7927.15
3808.24
4681.45
4842
298.258
19881.3
19466.4
14997.6
5153.7
5425.4
4307.73
5237.73
5527.87
1888.96
17827.5
17882.3
19876
16894.5
14699.2
14408.2
15155.6
14911.8
16835.6
355.756
398.186
437.803
437.922
7980.74
7565.4
7464.09
2573.32
2382.38
2830.09
4420.87
4185.81
4908.37
4753.47
3251.58
3330.69
4974.05
5116.09
4222.46
4273.62
2645.87
3215.22
2821.98
1198.47
8939.57
9512.94
9081.44
6058.59
6800.5
6262.67
8440.16
8416.85
8660.89
7982.23
8143.34
8192.09
4395.42
5520.76
5653.94
973.899
451.458
414.139
3235.14
3148.09
3202.65
798.824
3190.64
2604.64
5464.5
5645.9
4909.03
6889.89
6699.44
7035.77
5990.69
6347.61
6512.63
2147.93
1008.51
1271.94
1306.25
3358.94
3457.54
1165.95
1565.66
6374.82
6916.14
6882.93
743.483
773.886
706.498
652.145
5513.3
6217.88
6012.56
9613.39
4220.37
8490.85
3937.46
3678.24
3984.23
1617.19
1451.69
1495.39
1777.33
1738.37
2262.78
2462.34
2052.43
6780.64
7166.21
7015.78
988.486
1262.91
1629.93
1937.58
7206.37
5913.03
4346.04
2864.61
2898.48
2950.61
2980.04
9793.39
10719.7
10737.8
1845.56
2220.23
3466.58
4185.82
3585.04
4385.13
4212.15
1735.13
5698.39
7054.51
6342.4
535.308
215.255
637.488
611.195
1526.04
1112.41
1504.95
1431.57
1555.43
1351.56
1717.62
2155.23
2024.48
2718.84
1608.76
9549.61
10407.6
11098
2910.17
1878.45
2920.1
3225.42
7437.78
6870.46
5551.02
7276.35
7657.5
8652.28
634.214
631.653
1406.97
961.236
558.384
2998.2
2547.15
2500.43
316.643
253
176.301
146.928
12970.8
11482.9
11054
1195.93
1267.64
1836.65
2211.89
1880.42
3023.57
1292.75
921.755
1088.75
2117.49
2154.97
659.37
686.377
1752.34
4140.02
3034.74
1169.78
1299.46
8800.59
10100.7
9470.81
5235.04
5018.55
4885.46
4697.06
4619.52
4872.67
1454.04
4684.08
2262.06
2441.45
1986.26
7738.82
2980.08
7982.35
1977.72
1886.22
2056.24
1614.77
1306.1
1873.34
7382.48
7141.25
7657.45
576.026
461.098
5459.3
2435.16
2932.17
3802.49
3770.54
1472.93
1589.03
2205.64
1398.88
7362.1
7321.76
3081.1
2805.21
2346.62
1779.66
10572.9
9174.57
10599.5
10649.8
9814.26
8914.03
10928.5
10519.1
11208
3683.32
4641.95
4362.56
3747.36
3879.61
2775.74
903.956
555.459
11544
10954.1
9986.53
12100.7
11572.7
11588.9
566.205
577.442
1512.39
1148.71
6531.13
7987.97
9583.76
5062.8
614.568
4102.8
9664.28
10652.5
10303.5
6839.15
4408.94
543.948
8391.44
7239.09
8694.51
4897.85
2107.67
4332.37
4839.38
5302.38
2656.33
8051.65
7250.34
7849.26
6406.28
7212.83
613.745
673.852
2565.45
2625.48
7082.29
6922.97
8061.32
2060.69
2606.12
2830.24
556.045
814.65
442.214
483.116
1236.33
1117.58
980.093
612.074
1397.88
1073.14
1140.9
1018.94
6197
5842.26
5961.97
5381.96
5307.04
5643.07
4554.85
4964.07
5018.33
432.273
2255.26
474.23
927.8
880.777
557.329
584.927
948.686
954.424
1291.07
1265.48
956.17
658.312
704.069
2188.34
2150.7
3469.32
3505.82
7977.77
7970.85
8141.36
464.198
463.223
325.507
464.752
1688.8
1628.76
1426.15
7947.43
7785.06
7891.67
7336.31
7604.41
7788
4671.92
4852.29
4324.04
3074.81
4278.53
4362.68
4513.79
17519.7
15969.4
19145.4
3563.77
7271.99
1506.1
2446.77
5587.44
2303.96
10426.7
11198.6
10122.2
5395.16
6690.46
2745.32
4105.56
2021.61
2140.51
1833.45
1926.84
2977.63
2580.81
2459.97
6747.53
6589.73
6516.02
5231.73
6163.32
6557.43
1757.01
1718.67
1617.61
1079.51
1264.39
1027.72
1669.71
1851.05
1844.31
1897.3
1892.88
1660.69
3277.92
3885.62
3997.35
3384.77
3264.39
3749.94
2535.62
1682.12
1421.47
2461.73
1094.81
4303.23
3773.27
4182.54
2993.07
3789.15
1521.89
2427.26
1941.53
3815.2
2620.35
2668.34
2470.58
2547.59
3724.38
474.785
2175.74
2067.47
2841.25
3005.14
3141.83
2765.08
1837.84
1875.09
1763.61
1800.93
2703.83
498.894
465.17
54.946
1085.96
1120.85
1110.58
3208.51
315.449
963.606
400.781
1642.85
1519.48
1204.76
498.622
492.303
411.022
2593.22
3010.1
712.871
740.097
428.462
405.2
4930.14
3380.73
10032.8
2424.89
2669.85
863.497
4776.08
4931.44
5128.66
3107.16
2397.94
2400.2
2386.1
2393.57
3060.07
631.372
661.531
5779.5
6006.27
4306.59
3116.36
2397.47
2389.7
2401.8
2401.27
3128.53
3492.29
3337.41
3980.61
2308.59
2297.85
2211.37
2315.42
1238.96
1097.25
1108.34
1791.57
396.683
420.666
324.023
357.831
641.093
410.34
373.45
885.204
478.755
1666.31
1100.95
771.223
1459.15
187.857
526.599
470.298
155.917
419.31
290.715
937.487
693.039
769.262
1402.69
1441.57
1925.99
1955.01
1672.01
1649.61
1549.85
1696.99
1777.11
1275.07
1481.99
1437.24
2747.16
3546.11
3181.28
3549.69
3599.89
2820.45
1534.94
1557.71
1294.48
1399.75
2390.98
1795.33
1114.16
1136.53
1225.27
1091.64
1434.81
2166.81
2609.13
2461.65
1929.04
957.318
3524.06
2435.97
2259.61
2687.4
2590.31
3741.58
4340.35
4918.72
3490.31
2967.38
2612.27
3970.56
2952.75
1207.82
2087.72
2133.27
427.459
1496.93
1299.02
2490.9
1962.82
1362.24
2615.18
2386.38
3231.1
730.518
643.669
556.459
1350.54
2778.93
1757.57
1840.93
2069.12
1904.7
2983.74
2578.96
2282.98
1286.15
53.2417
68.6508
1951.82
2129.18
2001.88
547.337
485.638
661.032
322.753
374.633
166.978
1596.1
1647.66
772.966
1245.05
899.123
721.147
1480.08
1599.68
1439.95
2963.03
3392.72
3056.79
2533.8
2973.61
2042.3
1435.2
1469.21
1312.66
1388.72
1960.58
497.214
2349.34
327.412
469.063
789.112
802.322
593.341
730.939
406.727
684.7
955.564
111.415
508.61
878.912
914.832
1010.49
831.387
634.845
468.979
459.822
353.506
482.179
417.035
493.882
1772.94
3746.02
1120.79
9555.09
9133.95
7964.34
536.686
2977.8
1985.95
2022.35
1911.89
1949.61
2932.91
1713.87
7537.43
3109.66
2796.68
2546.44
3021.86
2864.3
1749.67
515.874
496.97
589.089
454.146
1881.64
1143.34
603.749
980.259
432.094
448.221
1162.45
4009.25
4259.06
4354.27
2524.99
2294.45
2304.41
2488.13
931.354
1160.66
1830.45
1331
3284.79
2799.69
3422.21
546.061
3537.28
4440.28
2505.74
2818.26
9310.42
8950.23
7419.27
10576.7
10063.6
10252.6
548.906
3070.65
3056.57
508.852
10243.8
1763.08
6230.54
1728.9
1567.96
3491.07
2761.43
2440.27
4048.49
3602.52
4088.23
3113.04
2945.68
4710.55
4367.62
4402.76
4608.13
4212.99
4156.87
4365.07
4287.97
4663.8
3062.11
3091.56
4494.33
2999.76
12308.4
4858.87
3080.72
8734.87
7626.2
6415.18
2987.22
1046.62
1057.79
1017.98
1033.98
2984.97
2951.53
1088.06
1111.23
1066.86
1076.06
2963.71
9922.83
10097
8266.24
7041.25
8613.64
9354.35
4223.31
2390.31
2377.57
3014.24
1845.39
1804.63
1758.19
1811.33
206.265
476.088
4698.33
4849.91
4261.37
6176.49
5788.69
6088.95
582.642
669.373
515.339
3605.06
3287.09
4157.82
1101.65
721.541
887.937
1026.55
2431.04
2898.49
1484.57
3385.29
831.583
922.091
574.016
547.383
3465.16
3026.4
2961.63
3146.41
3066.23
3459.42
3396.73
2811.48
2688.97
2952.21
2821.99
3384.13
527.293
521.216
1288.41
1249
1394.73
1502.74
1654.35
1176.05
1168.64
1251.19
1540.98
2118.74
2251.45
1860.45
1956.61
1617.14
874.688
1208.11
1010.74
356.946
330.205
420.023
433.016
1985.6
2040.95
1845.58
380.368
416.472
3229.95
2735.52
2741.9
2713.21
2722
3247.87
3141.63
2748.88
2767.42
2746.37
2750.38
3159.77
400.91
424.081
2735.94
2368.22
3710.22
3662.05
4636.05
5103.07
5025.43
5150.91
5164.52
4704.24
4160.94
4702.08
4559.45
4923.36
4824.93
4298.27
4586.67
4550.88
2920.57
3142.04
4652.91
4613.69
4781.14
4861.74
3234.2
2853.93
4504.18
4668.55
2759.51
2886.61
3577.53
3759.12
3671.19
1510.36
2802.24
2830.84
6834.2
7295.2
7709.22
774.289
823.608
714.994
748.074
795.438
733.391
829.878
831.49
1074.95
1108.15
935.602
899.136
1139.97
1104.45
1292.93
1307.38
3008.38
1501.29
1009.55
2269.12
769.759
4058.72
4064.32
4378.69
3369.84
2340.25
2405.55
2228.5
2283.24
3279.07
5252.3
5301.16
4050.48
4716.75
5118.18
5236.02
777.702
3322.74
3166.53
3145.03
3272.84
3202.84
3033.08
2788.71
3401.68
3365.68
6706.3
6685.56
5992.4
5171.13
5949.58
6151.79
2515.67
1691.05
1727.21
1620.98
1655.9
2454.22
1973.31
386.165
617.73
595.865
630.894
617.704
340.167
1103.97
1196.98
1020.13
3247.59
311.68
234.292
437.92
554.095
489.603
713.899
644.689
534.363
514.594
513.25
1000.29
1180.34
1149.41
1228.5
1203.33
1020.64
904.89
1063.97
1032.6
1122.6
1092.41
930.177
764.362
316.861
619.381
651.577
816.538
764.587
4437.84
4896.45
4768.84
5298.81
5120.11
4615.55
4181.05
4659.41
4700.06
4686.72
4648.66
4172.51
3233.53
3025.05
2725.45
4332.13
3869.62
3720
1192.32
1560.9
2946.43
2408.23
2386.25
2581.47
2471.55
2970.49
4895.76
5256.36
5315.09
4873.31
5064.96
4632.07
2458.09
1954.77
518.502
2765.01
3781.02
3399.92
2964.71
1698.6
1696.13
2277.85
1973.47
1559.04
2119.7
2582.45
2478.64
3045.23
2370.11
2413.61
2378.03
2363.52
3062.2
3327.98
2558.75
2509.96
2616.4
2905.16
3114.28
1130.24
1221.17
859.755
2871.51
2856.45
4525.24
4071.86
4095.11
4111.15
4074.34
4523.97
4640.34
4241.37
4208.11
4140.54
4197.76
4613.99
2934.19
2904.2
928.884
925.826
2023.04
1719.76
4154.74
3092.66
3362.21
3821.12
4318.34
3939.18
3624.65
1505.23
629.58
549.248
3022.79
2908.42
3066.78
2081.56
2667.75
2886.65
3486.34
3187.17
3164.85
3158.19
3177.68
3455.28
647.232
612.176
2785.39
923.797
940.787
920.599
915.057
2726.94
2928.67
985.017
1001.39
953.103
970.298
2900
451.728
453.778
434.749
444.092
1678.24
1040.31
1069.49
928.553
851.938
553.753
461.552
907.114
1686.48
1510.56
1652.08
985.288
1294.79
2463.84
1813.7
1526.62
1423.94
3767.79
3661.6
3434.56
3654.64
780.987
747.853
647.674
803.648
769.958
970.101
594.329
533.403
494.614
737.015
750.914
215.88
314.103
3971.22
2715.72
2813.16
567.711
2734.14
3681.4
3650.5
2764.04
2475.79
2768.79
2770.1
3937.88
164.174
194.484
1933.41
1320.54
1363.72