/*--------------------------------*- C++ -*----------------------------------*\
  =========                 |
  \\      /  F ield         | OpenFOAM: The Open Source CFD Toolbox
   \\    /   O peration     | Website:  https://openfoam.org
    \\  /    A nd           | Version:  dev
     \\/     M anipulation  |
\*---------------------------------------------------------------------------*/
FoamFile
{
    format      ascii;
    class       volScalarField;
    location    "400";
    object      yPlus;
}
// * * * * * * * * * * * * * * * * * * * * * * * * * * * * * * * * * * * * * //

dimensions      [0 0 0 0 0 0 0];

internalField   uniform 0;

boundaryField
{
    inlet
    {
        type            calculated;
        value           uniform 0;
    }
    outlet
    {
        type            calculated;
        value           uniform 0;
    }
    ground
    {
        type            calculated;
        value           nonuniform List<scalar> 
5358
(
44566.7
44567.8
44567.9
44568
44568
44568.2
44568.3
44568.5
44568.8
44568.8
44568.8
44568.5
44568.3
44567.9
44567.7
44567.5
44567.4
44567.3
44567
44567.1
44567.4
44567.5
44567.5
44567.6
44567.6
44567.7
44566.4
44566.6
44566.7
44566.6
44566.5
44566.4
44566.4
44565.3
48110.9
48109.5
48109.4
48109.2
48109.1
48108.9
48108.3
48108.9
48108.5
48108.1
48107.8
48107.3
48106.5
48106.1
48106
48105.7
48105.1
48105
48105.6
48105.7
48105.6
48106
48106.6
48106.2
48106.9
48107.4
48106.7
48107.6
48107.5
48107.7
48107.9
48108
48108.1
48109.3
50579.1
50577.5
50577.5
50577.4
50577.4
50577.1
50577.3
50578.1
50577.9
50577.9
50578
50578.2
50578.5
50578.7
50578.7
50578.5
50578.6
50578.5
50578.3
50577.9
50577.7
50577.5
50577.5
50576.6
50576.9
50577.8
50576.3
50576.5
50576.1
50576.4
50576.6
50576.7
50576.6
50578.4
51870.4
51867.7
51867.1
51867.4
51867.5
51867.1
51867.9
51867.8
51867.7
51867.8
51867.7
51868.3
51868.3
51867.9
51867.9
51867.3
51866.8
51866.8
51867.1
51866.6
51866.8
51867.7
51867.8
51867.7
51867.6
51868
51867.2
51867.5
51866
51867.1
51866.7
51866.8
51867.1
51869.8
52383.8
52380.1
52378
52377.6
52377.4
52376.1
52376.1
52374.1
52373.3
52371.3
52369
52365.2
52362.5
52360.2
52358.7
52357.1
52355.4
52355.8
52357.4
52361.1
52363.4
52364.8
52366.7
52368.8
52371.2
52372.7
52373.6
52375.6
52375.9
52377.6
52376.7
52377.4
52379.4
52382.7
52437.2
52433.3
52428.5
52426.6
52426.2
52422.7
52419
52413.8
52408.4
52400.8
52393.4
52384.9
52374.8
52364.5
52359
52353.9
52351
52353.4
52359
52365.6
52373.7
52382.4
52389.9
52397.2
52403.5
52409.1
52413.5
52417.9
52421.5
52424.7
52425.4
52426.5
52431.2
52435.1
52230.7
52225.6
52219
52214.2
52211.2
52204.4
52196
52185.4
52173.3
52158.6
52139.7
52115.6
52092.5
52068.8
52050.4
52039.3
52035.3
52041.9
52055.4
52075.5
52094.9
52111.4
52128.5
52144.2
52159.9
52172.9
52183.3
52193.3
52201.7
52207.7
52211.5
52214.9
52222.1
52225.7
51885.4
51880.5
51871
51862
51854.7
51843.9
51828.9
51809.7
51785.4
51755.1
51720.3
51680.4
51628.1
51573.5
51533.6
51511.5
51508.2
51523.2
51550.4
51586.8
51626.9
51665.1
51700
51731.3
51759.7
51784.6
51806
51823.3
51838.3
51848.8
51855.4
51862.9
51872.8
51877.7
51475.1
51469.3
51456.3
51443.5
51430.2
51413.7
51390.6
51359.5
51322.8
51276.4
51212.3
51129.7
51052.3
50982
50925.7
50894.1
50890
50910.2
50947.6
50995.4
51046.4
51102.4
51162.5
51219.4
51269.3
51313
51348.4
51377.9
51402.4
51419.8
51430.9
51443.9
51456.4
51462.9
51043.2
51035.4
51020.9
51002.4
50982.4
50956.5
50924.9
50880
50821.1
50747.6
50668.9
50572.7
50461.8
50351
50257.4
50205.2
50197.6
50225.3
50285.4
50359.2
50437
50515.3
50590.7
50659.1
50725.8
50795.5
50858.6
50904.7
50938.7
50964.2
50982
51001
51016.8
51024.8
50614.4
50605.3
50589
50565.9
50538.4
50502.4
50455.5
50398
50330.4
50259.5
50171
50051.2
49897.9
49735.6
49588.8
49487.2
49442.6
49461.8
49553.4
49665.1
49786.3
49901.8
50009
50105.1
50190
50268.8
50347.5
50420
50471.1
50506.8
50535.4
50560.2
50579.7
50589.3
50204
50193.9
50175.6
50149.3
50114.8
50069.5
50010.9
49955.9
49893.8
49828.7
49770.1
49803.1
23296.3
22960
22475.6
22127.4
22161
22501.7
22739.5
22917.4
23087.4
23256.5
23408.2
23537
23641.5
23725.8
49900
49956.6
50016.5
50067.3
50106.3
50136.9
50160.2
50171.5
49819.5
49809.1
49789.4
49760.7
49721.1
49669.5
49618.9
49567.9
49516.7
49490.9
49583.9
50219.6
22464.6
23840.7
10199.2
9697.97
7429.11
11221.7
21097.2
21125.7
21388.6
21701.1
21952.5
22162.2
22323.7
22445.2
49533.1
49545.8
49602.2
49656.4
49704.1
49740.7
49767.1
49780.1
49464.9
49454.4
49434
49404.2
49361.8
49316.4
49272.2
49225.2
49189
49218.5
49523.9
50942
24446.2
32376.7
9538.74
7084.31
9510.14
25284.1
21991
21110.1
21564.8
21861.7
22055.6
22192.3
49238.8
49186.6
49238.1
49289.2
49336.5
49376.6
49405.2
49419.4
49141.4
49130.2
49110.6
49080.6
49040.6
49002.3
48959.9
48913
48883.8
48936.9
49366
51283.1
25306.7
13516.9
22509
12172.6
12543.2
3358.67
12981.4
13745.3
37496.2
23900.4
21926.9
22056.3
22214.7
48989.6
48877.9
48919.3
48968.7
49010.8
49047.8
49076.2
49091.4
48847
48836
48817.8
48788.7
48754.4
48718.7
48673.2
48621
48581.6
48611.6
49072.5
51388.8
26069.5
8264.82
2280.57
3272.27
5301.68
3556.19
3285.36
4723.96
5007
32631
25747.5
22683.2
22144.1
22269.4
48753.8
48611.7
48642.1
48687.7
48726
48756.3
48780.6
48795.8
48579.4
48569.5
48552.8
48525.7
48495.5
48458.9
48408.6
48347.1
48283.3
48267.8
48794.6
51704.2
27186.4
8110.61
27579.3
27856
22133.7
41162.6
29428.5
23279.3
22464.6
22325.1
48506.1
48372.8
48396.9
48438.1
48474.3
48498.7
48517.4
48530.2
48335.6
48326.5
48311.9
48287.5
48259.1
48220.3
48165
48092.2
47998.2
47949.2
48627.8
52142.3
28114.5
15765.3
14771.8
16964
8691.87
33589.5
28131
23270.8
22708.8
22404.2
48243.1
48145
48173.1
48212
48246.3
48268.1
48281.9
48291.8
48112.2
48103.5
48091.2
48068.5
48039.5
47998
47938
47853.3
47725.7
47642
48403.9
52007.4
28007.6
27566.3
1482
4264.52
22477.9
30445.5
17288.1
28687.3
24946.7
21741.5
22762.5
22487.4
47971.2
47918
47959.7
48002
48035.8
48055.2
48066.1
48075.2
47903.9
47896.7
47885.7
47862.6
47832
47787.5
47721.2
47621.9
47452.6
47307.8
48029.1
51326.3
27377.3
25829.5
6163.06
2403.83
1384.09
2321.75
2572.13
27054.3
24337.5
21499.6
23246.9
22549.6
47691.3
47690.4
47751.8
47799.6
47835.5
47854.9
47867.1
47875.1
47708.1
47700.8
47689.2
47665.8
47631.3
47582
47506.6
47389.3
47170.2
46934.1
47513.4
50315.6
26415.2
24761.1
16376.6
1574.79
1655.88
6853.12
18729.2
20114.8
32220.1
26155.5
22641.7
24185.9
22542.3
47404.9
47462.2
47546.9
47601.2
47640.9
47665
47678.2
47687
47521.5
47513.6
47501.5
47477.7
47437.7
47379.6
47293.5
47155.2
46882.2
46530.4
46901.7
49169.7
25360.2
24050.1
16911.7
13063.6
15293.2
12899.2
16298.9
16090.3
23992.2
33137.7
27501.4
24471.1
25184.9
22461.7
47121
47237.4
47344.8
47408
47453.9
47482.5
47497.1
47506.7
47340.8
47332.8
47319.6
47294.9
47250.9
47182.1
47080.7
46921
46597.8
46122.5
46249.6
48039.3
54611.6
52658.8
49795.7
41661.4
38143.5
34874.4
29963.5
45863.2
62619.4
72570.1
63034.5
63826.3
53563.1
47176.3
46859.8
47026.7
47153.7
47224
47274.3
47304.4
47320.9
47331
47165
47156.4
47142.1
47115.8
47068.6
46991
46874.4
46685.7
46315.7
45729.8
45632.3
46878
53335.2
54004.3
54007.9
50348.2
45426.2
40426
38681.4
48830.1
60922.5
68370.3
61860
61725.5
52537.2
46821.8
46626.6
46834
46972.7
47043.8
47097
47130
47148.1
47158.2
46992.4
46983.3
46968.8
46941.9
46891.2
46808.2
46678.1
46461.3
46045.1
45362.6
45057.8
45733.5
51813.2
54575.2
56686.2
55234.4
50798.7
44511.5
42551.7
51685.4
60715.4
65794.5
61757.8
60322.6
51684.9
46545
46411.1
46649.3
46791
46867.5
46923.1
46957.5
46975.9
46987
46822.1
46813
46797.4
46769.2
46715.5
46626.9
46485.5
46246.7
45787.2
45022.4
44532.4
44673.9
50239.3
53844.4
57537.9
58116.3
53818.9
46584.6
43818.3
53616.1
61013.6
64148.2
61532
59040.4
50961.6
46319.7
46209.4
46467.7
46610.6
46692.1
46750.6
46786.3
46805.1
46816.7
46655.5
46645.6
46629
46598.8
46541.3
46447.6
46298
46040.2
45545.4
44713.8
44062.1
43728.3
48724.3
52191.5
57221.7
59855.3
56167
48535.6
44729
54844.9
61391
63002.2
60970.2
57831.8
50348.9
46128.6
46022
46289.8
46433.5
46518.3
46579.1
46616.2
46636.1
46648.5
46491
46481
46463.1
46430.6
46370.6
46272.4
46116.4
45843.8
45323.2
44440.7
43652.1
42910.5
47333.6
50142.4
56549.3
60846.6
57659.2
49606
45350.3
55606.7
61649.6
62110.5
60193.9
56736
49830
45962.7
45848.9
46117.5
46259.6
46346.9
46410.1
46448.4
46469.6
46482.1
46331.8
46321.3
46302.1
46267.5
46205.5
46104.7
45944.5
45661.8
45123.7
44205.3
43303.5
42220
46096.3
48151.5
55963.5
61365
58324.3
50085.3
45741.1
56031.9
61696.4
61308.6
59331.5
55753.7
49385.9
45816.6
45690.6
45954.8
46093.7
46182
46245.2
46285.1
46308.2
46320.5
46174.4
46163.7
46143.3
46107.2
46044.2
45942.1
45779
45492.5
44945.9
44005.5
43013.5
41654
45035.7
46539
55759.2
61769.8
58758.8
50412.6
45962.4
56241.5
61651
60606.2
58489.3
54892.4
49005.5
45688
45547.3
45800.5
45933.3
46021.4
46084.2
46124.2
46147.8
46160.5
46030
46019
45998
45961
45897.7
45796
45632.5
45345
44796
43842.1
42779.7
41197.4
44115
45209.1
55504
61695.6
58665.4
50352
45827.4
56132.8
61264.3
59808.3
57594.9
54081.1
48667.4
45578.8
45424.2
45664.8
45790.2
45876.8
45937.5
45977.7
46001.6
46014.1
45880.4
45869.7
45848.6
45811.5
45748.9
45649.1
45487.7
45204
44661.1
43707.7
42594.6
40866.7
43381.2
44708.6
56060.7
62356
59460.8
50851.8
46481.1
56380.8
61196.4
59280.4
56906.1
53419.3
48374.2
45479.2
45311.4
45533.7
45648
45730.3
45788.1
45826.6
45850
45861.9
9791.33
9814.46
6543.67
23242.8
17129.9
11140
23448.8
9619.06
3635.36
17250.2
1412.6
7815.41
12193.3
1854.47
922.471
1327.99
2551.31
26145.2
5650.34
858.855
13187.4
1856.34
4158.92
22934.1
12706
1953.1
3491.74
4810.15
9698.03
2783.21
27044.2
4775.94
9689.86
3843.25
7394.34
18616.8
3494.68
8930.63
20485.6
28679
8329.46
2897.71
21803.2
46213.6
18174.5
16247
890.845
1129.21
13141.4
1669.85
9756.97
11306.4
9515.09
21156.4
12400
1384.57
19227.1
492.007
3201.81
3685.53
1179.83
5434.8
14870
11907.1
1393.24
308.883
1746.36
1625.35
366.415
419.622
6817.11
6974.49
7132.58
7729.07
11244.1
24183.6
7098.7
455.475
13489.2
4885.19
477.63
15717.4
15653.8
3799.2
8083.97
6196.15
12030
16432.7
663.722
8140.11
13513.9
17404.8
15568.4
5444.25
3918.17
22052.3
10066.7
21663.7
22286.9
9899.24
11296.4
13143.3
5050.45
21451.2
13929.9
10630.4
21050
21151.8
12916.4
20001.7
35011.2
13919.6
721.197
7639.29
4312.34
2885.61
1287.75
5932.32
9309.62
11126
9474.16
2378.01
8249.47
1515.14
25555.6
29795
24108.7
20951.2
39504.2
29082.1
13150.1
13970.3
25708.6
12117.2
974.962
4645.56
12160.9
8292.68
4654.36
1934.18
2951.83
460.638
13287.5
3878.54
13397.5
7626.27
28424.3
27580.4
31084.5
14686.4
16638.4
26578.7
8191.15
11846.1
3698.27
3621.09
12780
59719
25856.3
4609.49
16986.4
19138.4
5146.67
4657.54
5245.56
14213.9
40475.7
19871
16964.8
16770.8
27764.4
7889.82
2223.3
2345.43
12205.1
11335.1
29017.4
2850.64
3497.53
10836.2
3526.74
2795.52
7593.56
9449.88
1950.95
23055.2
8831.55
12978.4
5018.47
29540.1
15004.4
10076.6
8418.47
2709.17
2202.73
3412.3
3425.32
8388.72
22012.3
8631.89
7819.24
4351.8
4494.59
26541.4
1053.05
26447.7
3145.04
3222.68
21844.2
4125.25
3349.09
37936.2
13356.2
4519.79
6995.42
6166.94
4978.78
4698.23
13474.1
2056
1562.28
8153.93
7167.39
914.587
3351.38
1854.83
3852.6
2841.84
2630.02
4582.38
11946.5
14082.1
2277.82
4222.72
7418.42
2984.69
10778.9
10324
5264.3
12500.4
8943.35
5862.47
10303
7051.28
4169.23
1473.14
852.517
22293.2
1207.24
1859.8
7451.99
8899.03
24219.7
7150.34
1546.81
7505.41
23420.7
9726.78
2648.7
637.044
13712.3
2208.83
5560.68
12118.9
1292.97
1031.98
1818.26
2813.85
1864.03
10344.9
135.987
13389.2
1456.85
9094.37
898.964
4454.87
12893.2
2246.84
3523.31
2046.52
5783.6
16006.7
15183.2
6123.11
5372.67
3191.95
5015.94
4255.97
2761.99
3099.59
1871.2
6120.97
4362.91
7866.63
4336.15
10017.9
4218.04
4327.35
5079.9
1849.84
24590.1
7532.92
4404.5
14238.9
5350.4
5164.67
3765.22
2856.47
7563.98
2570.13
2578.05
1974.9
3365.33
7801.5
1464.77
10789.7
2857.55
2050.04
5648.42
2471.78
21271.9
2155.77
4922.61
3744.89
12114.5
9598.42
11516.7
3405.89
2423.39
29427.7
10864.6
3645.02
9444.47
8838.29
8267.6
7162.47
5117.11
6436.92
6722.94
5100.1
22591.9
22816.5
9075.95
6039.36
5687.26
6524.52
6169.57
5438.61
21433.5
8750.06
10191
10211.4
15543.9
4903.43
3410.61
2758.66
4869.49
1500.46
6825.3
8483.43
8273.27
17147.9
16963.2
3011.01
2902.39
9596.69
6843.3
10012.9
22927.9
5220.8
11224.4
13317.8
14768.4
2632.51
7419.06
14171
7674.05
2357.02
700.788
2498.33
822.795
1144.35
2211.92
762.574
4827.48
11816.2
1971.71
6539.16
5346.63
5859.12
4831.88
427.759
2083.23
443.001
1710.65
624.096
6844.27
8568.84
6184.11
6183.89
633.979
929.883
6458.49
6178.13
2515.7
2109.3
2061.07
2653.32
6003.56
5520.98
2693.1
13708
8179.87
5566.34
5421.77
2051.41
5397.81
7662.47
7214.12
4420.11
3475.41
4385.74
22297.7
21629.4
21833
26164.7
20422.7
29969.7
10308.1
10717.4
13007.7
7071.23
9068.18
7940.06
9092.3
6102.39
5720.77
26929.3
10316.8
3473.58
12212.7
12377.5
12311.2
11200.6
5354.63
2797.79
14119.8
6034.21
4993.44
4980.97
4127.99
1426.07
621.601
1755.08
1596.93
6773.75
18365.8
17088.6
10023.2
11330.7
4674.93
6124.98
15970.7
15735.8
3476.18
3078.91
3733.36
2611.69
4459.37
4327.33
17782
16707.5
19509.8
1189.51
8100.93
9700.86
3788.24
3571.73
4172.37
14425.3
9802.79
3123.88
14679.6
12512.7
15491.5
2715.87
2561.4
9880.94
22453.5
25252.2
3847.82
4615.55
5625.95
967.714
337.733
2052.45
3599.69
3502.4
783.417
3233.26
112.637
1420.42
434.102
429.702
4387.25
9010.73
2433.55
6477.85
6288.31
6636.87
2632.18
1102.84
15383.8
15258.7
16644.8
19803.1
20129
17498.1
15889
16198.3
9988.57
549.982
388.36
8615.96
10592.4
4566.59
7590.53
5705.22
3134.81
3010.54
443.619
704.768
15279.3
3692.99
20251.4
3108.31
3139.18
4141.4
1277.93
11797.7
11918.7
12020.3
1729.29
404.724
1669.01
1727.03
734.935
1316.48
3304.35
2707.18
19941.5
9023.48
26990.8
2164.49
1531.08
1096.98
3519.93
2400.33
2793.54
9869.63
3105.62
2607.77
3241.69
4248.85
2825.19
1253.9
3593.6
8871.11
1869.22
1498.78
3319.25
3778.59
23174
24491.2
21216.8
3583.31
9363.98
2069.84
4535.45
2535.84
1446.45
1625.75
3623.38
1771.52
1659.6
2728.19
3097.24
2941.94
8339.67
7648.74
150.354
9214.4
7906.51
8736.8
4150.06
4699.39
1820.81
20627.4
18376.2
16672.8
799.576
3085.5
247.16
1102.95
1638.21
471.037
3000.4
2909.11
5864.91
3424.05
2113.5
1858.98
361.654
2291.27
386.97
1830.04
326.384
186.415
440.687
3127.16
3974.31
2409.05
2491.35
607.059
754.436
2229.58
1865.36
429.835
425.106
6118.75
5553.05
6291.82
7625.49
4764.81
5108.77
168.095
380.532
7950.59
7246.4
6275.94
6979.75
7347.45
8221.74
1834.52
1938.44
6741.47
6698.12
6386.34
7928.84
3362.68
17021.6
7764.27
17260.2
11277.7
12256.9
10915.2
394.905
2898.39
2764.43
9721.39
9565.83
9540.62
9620.47
9651.41
10733.2
5965.58
6503.73
5803.22
18413.9
17060.7
17678.1
1622.92
2111
1393.51
1354.46
8269.09
6211.84
5268.29
4195.55
554.676
3815.93
362.53
9857.29
16691.8
10096.7
8754.36
2804.13
4429.83
4734.1
10273.2
4568.62
4698.45
12751.1
20225.7
28231
22703
20278.6
26642.3
4045.51
12142.1
5725.36
3744.1
7603.72
9005.33
6232.41
12367
12418.5
12232.7
2974.55
2957.17
2953.72
2964.96
8258.61
12232.9
21877
8085.62
11071.7
7790.15
4922.4
7988.36
2945.93
425.828
521.112
3534.81
6329.57
14096
842.489
862.135
4345.14
753.983
822.036
4736.22
392.023
907.59
3454.87
3535.54
3326.62
3487.38
1538.63
1197.45
1575.24
1759.87
563.578
498.097
123.169
329.233
511.344
22537
24425.7
27645
6018.06
5815.3
3833.65
2342.47
5015.46
4955.06
3187.06
3257.15
3114.64
3164.4
2917.81
2391.12
3702.18
3576.73
11967.3
4532.9
4729.46
3957.27
4407.96
11681.4
3028.08
11986.4
11956.3
11673.3
11892.9
3104.43
3164.28
11915
12113.6
11395.6
11633.2
3042.77
2726.58
3291.86
8082.75
8101.06
3436.07
8906.65
8346.98
8549.99
9808.92
9555.84
19215.7
14931.7
10159.9
15125
16513.3
7668.44
10194.9
8988.66
9014
8277.7
8587.33
9468.95
2635.92
2409.67
4334.38
4455.95
2348.26
9150.18
8531.73
3618.51
3448.72
3156.93
4421.87
12675.5
13684.6
11291.4
11905.4
4742.98
1248.76
2769.54
7218.54
8672.73
3471.89
6259.19
2728.05
8796.28
8801.38
10442.8
8222.94
8650.99
8472.46
5818.3
15744.9
15460.9
12736.4
13683.9
5353.45
2510.15
2358.51
4306.99
4391.11
4299.25
5037.12
4758.39
4545.75
1397.61
1662.04
409.001
361.497
783.222
3148.68
2947.78
3213.9
373.703
171.857
1722.58
390.556
642.062
446.938
435.389
2747.87
904.947
908.471
858.643
898.399
2723.73
1490.41
543.927
2433.02
2458.7
812.437
588.683
10512.8
4293.45
4867.03
4236.23
4218.23
10333
3082.81
4044.64
1408.91
8903.38
7492.14
7713.65
5799.03
6727.51
8466.1
2942.48
3025.31
10169.9
5099.94
4397.96
652.881
3724.2
1721.99
1731.21
1765.84
6215.52
6187.59
5745.67
5987.47
2043.02
3052.56
3088.83
8008.25
7265.15
7027.43
7688.79
7521.53
8620.2
4088.81
6524.13
3173.39
612.552
5466.25
5453.01
4528.91
4531.14
4573.29
4572.9
4237.47
8614.81
9706.62
5955.19
7175.2
1448.87
3300.9
2021.94
3517.49
3470.28
2797.89
2724.6
2939.07
2854.54
12008.5
12060.5
12257.9
1700.07
420.198
1743.76
2188.21
1265.28
8857.47
8127.91
8309.64
9440.21
1296.25
1313.47
3380.94
3011.29
1030.42
4066.46
2076.16
2719.55
4010.08
2695.4
1780.47
880.367
5748.78
81.1872
308.317
3555.32
135.175
693.815
4301.43
799.978
4217.07
2999.48
948.19
1144.91
731.353
805.441
2249.62
1166.69
2474.91
944.843
1413.86
935.166
1680.65
250.709
5035.03
160.5
158.003
4584.27
1561.82
1511.93
8926.74
2710.69
2141.02
3852.71
3062.77
3825.56
3725.45
3500.31
4605.6
1929.36
4365.37
2290.63
1628.16
11273.9
10778.9
3241.7
745.754
4361.23
7755.66
674.06
1183.45
1158.46
3741.92
2722.62
3109.56
9997.29
2494.59
3697.76
2805.1
7547.24
9103.59
958.551
1551.83
2680.32
8175.81
7721.55
1739.31
1230.23
4306.2
322.255
4598.55
3027.13
11553.7
1439.2
3541.85
3972.38
4692.51
5169.36
12391.6
11558.8
11941.6
12362.3
11829.5
4436.04
4087.82
2066.53
10112.5
10932.1
2706.89
2652.64
4219.05
2791.11
7697.64
7617.15
8374.91
3206.34
2929.03
7170.06
2421.33
2577.55
5534.57
394.62
376.023
396.473
400.246
6079.93
387.377
274.179
5307.16
5984.11
405.224
402.935
371.316
403.427
5953.73
6550.43
395.352
396.673
401.41
395.895
6346.91
10737
9534.38
9359.86
9187.41
9330.54
10545.8
5225.49
1433.78
5380.2
4493.54
1894.71
4942.4
8184.79
8301.48
2756.42
2820.99
562.289
779.849
2884.71
164.341
2685.21
2453.88
2554.8
3583.19
2560.71
1927.5
5880.07
5802.07
575.835
2805.93
659.557
1339.05
1964.89
2828.95
2787.01
521.317
4360.26
3908.02
3928.61
2476.03
1572.96
3627.94
5389.56
1309.76
2309.71
2164.34
382.567
2257.54
425.892
338.266
326.688
1798.42
2303.71
2237.97
519.555
624.66
2503.72
2497.71
2704.13
2523.02
841.524
2410.45
783.044
840.819
686.822
763.137
2250.75
422.281
398.174
2249.22
744.867
406.286
886.869
802.533
2615.66
411.957
443.154
2139.25
1669.32
5973.21
5424.95
7237.82
6602.6
3332.54
3392.79
3273.67
3341.19
385.863
1263.04
5911.65
2694
1371.67
1542.5
2941.87
5725.13
4965.1
1659.56
1714.4
2035.97
5237.54
595.566
3089.19
2940.4
2212.94
1998.07
2629.56
2302.19
1810.41
1763.79
1948.94
1838.15
10132.2
14704.1
13503.9
7715.68
3172.19
9319.12
10625
10578.8
12927.1
12641.7
11976.3
2834.93
2733.89
3258.35
13867.2
5147.3
12881
8111.82
8045.2
8298.93
2238.28
2106.36
2459.84
2815.95
5486.78
5122.3
3876.98
4271.2
3773.09
5498.13
6599.22
6245.09
7767.62
7654.79
8046.67
21687.5
22353.4
22784.8
35710.7
33494.8
36939.9
35049.2
32917.4
28172.4
4136.89
11993
14987.6
30578.3
28426.4
31420.7
1453.16
1746.82
1640.01
6332.86
5436.69
3306.58
26366.6
25057.5
26496.3
2999.69
3068.98
2468.91
2160.43
1676.08
1072.61
116.332
288.686
1467.17
1577.92
1987.57
2322.3
2015.27
714.78
377.958
25486.3
27443.8
22265.3
10141.4
9974.07
9515.37
11294.9
9961.65
9215.05
10557.7
10609.8
9737.44
3737.3
3168.03
2991.25
1300.63
7088.87
8132.45
8230.82
1790.37
1078.39
1073.08
602.582
527.002
910.655
1546.24
443.872
746.308
11519.8
11644.1
13102.6
2060.29
1779.36
1807.85
1346.92
847.244
1855.2
1877.04
2026.71
4678.23
1183.44
4551.11
5637.48
5754.12
4960.99
9479.47
3301.85
8524.53
4016.13
7887.67
7637.43
6904.93
2425.69
2261.25
2418.62
19279.8
21111.4
19801.1
1299.22
1036.74
427.542
917.52
14900.3
14975
4976.04
2186.61
2848.77
2255.05
10450.7
8411.55
8277.66
17535.7
16768.9
21911.9
1453.33
1608.72
1556.65
441.809
297.44
934.471
978.57
1194.12
13912.5
14456
15505.1
11837.3
13190.5
12864.7
198.2
1902.95
282.861
712.112
847.978
507.578
482.169
579.722
435.55
7103.02
8682.98
8566.96
466.803
402.432
2618.85
2693.16
2439.81
720.908
8163.17
7946.02
7862.12
16869.7
17486.9
18250
16277.3
16869.3
16235.9
4580.08
5199.22
5756.21
4077.22
4205.21
4076.88
13961
9403.53
9350.38
11122.3
9695.39
12571.1
9297.03
9343.24
11055
939.319
4383.4
4280.31
4150.37
2336.06
2321.55
2876.91
985.362
8667.41
9445.52
10102.2
8127.65
1874.65
11133.2
10364.7
9555.35
8961.16
2377.16
2805.86
9959.41
2616.91
9870.61
10516.5
8902.44
2349.5
2205.37
2933.58
2979.82
29674.7
23471.7
24111.5
12756.7
12538.8
13221.1
12349.9
12786.8
12145.4
2152.62
5439.45
6609.25
5782.78
7375.88
8063.46
8281.4
6368.84
7520.53
5775.2
2517.89
2990.31
2285.19
2232.54
332.686
520.171
254.723
4079.17
2908.78
2532.78
12699.3
5003.43
13882.1
15455.3
13377.9
13061.7
14086.8
13741
16124.4
605.587
594.766
500.907
481.509
8281.76
8018.72
7954.33
3436.72
4290.58
4465.55
308.128
20195.7
19814.7
14925.3
6046.25
5933.99
4804.19
4904.79
4944.91
2420.17
17592.9
17739.3
19798
17063.6
14735.8
14427.9
15221.6
14962.8
16991.6
351.117
399.923
428.191
427.785
7973.67
7528.8
7423.88
2530.77
2292.5
2885.22
4488.72
4272.16
4992.23
4828.41
3302.31
3354.57
5029.91
5171.11
4301.93
4333.71
2650.97
3206.25
2807.43
1173.35
9076.66
9642.78
9206.31
6239.07
7060.02
6464.32
8340.04
8308.42
8569.64
7721.25
7978.97
8038.75
4495.17
5572.5
5757.96
951.771
459.722
421.248
3043.65
2819.95
3102.21
934.943
3435.58
3124.63
5257.53
5454.33
4764.59
6740.67
6478.52
6728.77
5945.17
6214.75
6462.04
2008.57
872.05
1065.97
1089.49
3319.27
3478.43
1313.57
1611.46
4663.14
5153.18
5211.65
484.925
524.975
618.373
588.088
5514.13
6215.9
6011.25
9622.24
4223.5
8490.77
3943.08
3683.45
3990.61
1592.27
1436.53
1422.09
1751.42
1696.38
2259.35
2462.88
2058.03
6787.3
7293.3
7036.55
1004.37
1258.25
1621.58
1929.57
7196.24
5923.71
4362.35
2860.27
2894.37
2943.88
2973.61
9766.65
10691.5
10707.9
1833.47
2201.68
3441.57
4255.13
3603.62
4077.24
3896.62
1718.36
5369.68
7081.39
6158.3
524.539
204.16
643.079
619.468
1110.78
1008.63
1512.89
1103.69
1537.53
1420.61
1847.47
2124.61
1996.07
2696.33
1795.74
9548.07
10410.7
11092.4
2920.63
1881.35
2927.9
3224.4
7461.14
6944.98
5713.55
7297.29
7703.31
8658.92
1266.06
1208.15
1298.16
1010.5
763.3
4005.45
3367.32
3981.11
316.152
250.888
167.627
153.893
12935
11452.3
11022.7
1475.58
1564.15
2288.37
2221.21
1892.21
3040.14
1730.56
1166.42
1351.57
2222.08
2072.45
591.414
570.211
1676.64
4169.99
3033.38
1685.88
1740.29
8069.89
10010.9
9416.16
4944.87
5159.07
6271.05
5075.66
5732.84
5945.51
1418.11
4662.65
3123.17
3107.26
2808.76
7583.99
2924.98
7869.02
2488.37
2355.2
2476.47
2583.47
2231.73
2166.99
7340.76
7101.04
7651.21
566.655
449.135
5400.84
2405.78
2804.96
3645.52
3632.97
1423.05
1489.71
2166.92
1327.42
7022.35
6905.94
2961.25
2691.75
2286.24
1723.07
10831.9
9302.22
10749.6
10550
9663.16
8767.3
11067.7
10423.9
11147
3783.98
4777.59
4471.75
3840.2
3973.73
2835.58
909.889
563.254
11756
10997.2
10044.7
12120.7
11594.3
11776.2
577.643
591.811
1515.77
1134.09
6838.46
8203.78
9643.32
5348.26
521.354
3951.78
9651.32
10648.8
10313.7
6763.35
4406.97
534.62
8299.95
7153.38
8557.52
4966.8
2216.48
4492.63
4894.78
5408.13
2706.74
7905.65
7158.18
7772.96
6326.47
7089.09
631.332
690.755
3159.01
3409.42
6588.77
6390.1
7569.36
2133.39
2717.88
3021.94
525.603
765.222
448.79
491.599
1219.56
1048.51
997.882
610.544
1999.27
1732.92
1761.64
998.658
6276.07
6165.85
6031.73
5550.22
5402.51
5674.69
4720.22
5104.16
5200.56
395.594
2123.51
448.292
929.131
889.182
600.16
630.525
955.825
957.269
1115.1
1135.44
923.222
430.948
435.415
2205.46
2168.53
3470.26
3509.91
8002.89
7981.86
8151.03
469.005
468.689
327.317
449.412
2181.23
2099.67
1935.52
7532.62
7364.13
7532.82
6958.14
7179.35
7394.59
4673.74
4861.99
4338.3
3056.95
4247.59
4350.87
4508.68
17525.2
15962.4
19132.4
3558.71
7260.54
1503.33
2238.12
5367.95
2275.74
10581.7
11303.7
10126.3
5303.01
6589.39
2716.18
4040.6
1999.58
2117.49
1816.12
1914.35
2926.14
2535.97
2413.21
6675.82
6524.75
6442.47
5191.59
6110.85
6495.29
1728.68
1658.57
1580.83
992.236
1147.41
908.503
1713.18
1818.66
1909.62
1727.21
1760.84
1662.37
4301.01
4688.9
4866.02
3365.84
3240.5
3788.23
2544.8
1688.82
1428.59
2476.5
1088.56
4336.85
3788.39
4198.45
2999
3815.03
1471.08
2318.32
1868.85
3779.8
2616.85
2663.42
2468.18
2544.87
3690.48
504.147
2151.03
2144.87
2767.72
4012.33
3094.05
2665.12
1797.84
1834.34
1728.97
1763
2614.02
604.933
680.768
43.5725
819.167
1260.93
1236.53
3234.39
228.646
1023.46
396.755
1671.15
1550.61
1219.87
427.353
429.801
318.23
2565.7
2944.17
681.585
696.059
427.792
404.874
4926.82
3376.57
10022.9
2432.28
2665.11
862.381
4771.01
4921.59
5118.54
3112.86
2401.56
2403.79
2389.2
2396.96
3065.16
632.677
662.77
5787.78
6037.88
4301.26
3122.88
2400.99
2393.12
2405.37
2404.83
3135.19
3466.83
3303.2
3945.75
2292.47
2283.63
2189.75
2295.27
1244.17
1113.52
1106.41
1755.31
374.996
397.446
320.364
341.226
545.421
383.04
279.175
805.486
412.061
1607.65
1070.89
735.077
1414.91
171.208
497.215
478.812
147.192
731.677
484.167
1324.67
1109.82
1188.83
1725
1755.91
2412.5
2200.41
1887.94
1750.08
1518.66
1566.21
1620.56
1243.92
1388.77
1411.01
2752.12
3568.02
3201.14
3569.32
3621.44
2824.1
1853.03
1854.13
1554.46
1676.96
2359.85
1766.4
1264.22
1287.53
1291.71
1196.84
1440.67
2182.78
2633.19
2477.33
1941.83
963.43
3465.85
2355.66
2193.29
2575.01
2500.9
3678.19
4323.98
4906.94
3491.47
2955.89
2597.33
3989.59
2975.8
1220.46
1965.45
2014.95
420.637
1468.45
1288.31
2474.83
1954.01
1359.02
2610.16
2377.94
3206.94
1756.26
669.248
587.012
1423.59
2786.06
1807.32
1923.05
2026.95
1897.2
2965.91
3515.18
3311.03
2728.87
67.0967
56.6919
1716.72
1831.93
1819.08
585.267
512.722
729.713
312.127
401.974
130.954
1733.67
1731.84
912.764
1403.5
901.97
623.9
874.504
783.211
603.772
3207.16
3606.1
3228.78
2673.8
3138.64
2053.04
1463.36
1492.81
1346.22
1420.33
1975.56
399.027
2185.32
317.883
331.315
656.236
669.983
494.081
604.34
301.136
691.259
1164.79
155.645
569.948
919.202
945.776
960.083
791.452
622.412
428.678
427.407
248.032
330.336
445.744
377.061
1746.05
3772.03
941.355
9545.84
9126.63
7962.06
527.053
2856.03
1950.66
1991.29
1871.77
1911.15
2811.69
1710.75
7526.44
3104.35
2791.32
2541.63
3016.63
2858.98
1749.86
507.731
496.625
610.345
445.267
1875.23
1136.35
603.862
989.263
434.237
445.756
1158.46
4018.43
4268.15
4362.46
2530.69
2299.49
2307.4
2493.43
933.319
1162.88
1834.71
1333.52
3289.96
2805.62
3430.29
535.161
3519.07
4418.77
2500
2806.35
9264.29
8906.18
7409.66
10511.8
10006.2
10197.6
517.523
3057.58
3163
507.691
10035.6
1789.02
6260.13
1724.06
1564.08
3479.96
2752.53
2431.67
4036.47
3591.38
4075.75
3109.7
2942.64
4703.76
4362.68
4396.98
4599.95
4206.37
4150.07
4358.79
4281.37
4655.86
3058.71
3088.24
4503.98
3000.27
12349.2
4871.22
2964.28
8688.84
7553.64
6354.7
2974.74
1042.63
1054.35
1013.28
1029.59
2970.75
2947.3
1086.9
1111.03
1064.06
1074
2957.12
9842.04
10031.7
8227.33
6975.05
8548.4
9280.97
4163.97
2346.4
2338.39
2992.68
1812.01
1772.66
1718.3
1771.79
388.213
998.187
4694.54
4841.92
4252.84
6167.51
5778.72
6082.54
582.763
667.584
516.99
3606.15
3291.72
4159.09
1102.78
722.602
893.416
1030.31
2388.75
2780.95
1445.99
3121.93
822.984
906.333
579.054
553.562
3497.13
3034.3
2972.55
3146.86
3069.26
3491.93
3409.21
2827.21
2712.34
2966.69
2840.87
3399.91
532.199
525.265
1267.89
1249.03
1284.02
1428.38
1525.43
1144.37
1131.51
1178.02
1650.7
2030.06
2204.69
1960.92
1979.75
1732.07
778.743
1153.94
932.029
402.121
343.746
479.909
500.999
2301
2222.14
2197.69
372.958
411.908
3211.77
2722.36
2726.49
2704.85
2710.77
3230.55
3120.97
2724.52
2741.03
2728.21
2729.41
3140.51
392.025
416.068
2704.02
2213.41
3717.26
3662.81
4643.02
5122.21
5032.91
5194.55
5197.84
4721.96
4133.76
4680.83
4529.74
4919.84
4813.7
4277.3
4637.18
4605.13
2958.69
3182.87
4717.79
4670.18
4846.71
4922.31
3259.41
2866.2
4565.42
4732.43
2820.44
2940
3654.99
3833.2
3741.21
1474.69
2772.03
2805.61
7079.85
7620.15
8087.32
882.784
891.239
851.686
886.317
832.626
768.649
883.548
869.855
972.824
943.521
890.433
809.596
980.52
915.067
1094.91
1127.47
2938.69
1468.85
1004.09
2195.28
764.914
3854.38
3904.36
4214.75
3336.72
2337.81
2403.2
2222.13
2279.39
3239.13
5246.69
5312.31
4132.5
4746.24
5093.69
5215.54
815
2230.97
2239.06
2901.16
3444.84
3498.34
3453.08
2793.09
2919.87
2404.18
6663.51
6654.76
5974.46
5029.93
5801.28
6033.39
2458.91
1665.48
1696.73
1609.25
1636.37
2408.6
1833.9
413.632
586.714
576.461
583.941
556.817
377.157
1130.78
1085.08
820.349
3229.43
320.721
238.995
472.18
601.634
553.442
762.902
684.58
572.471
444.38
442.874
911.641
1078.05
1062.34
1088.18
1077.86
910.894
873.71
1035.56
1017.72
1061.87
1047.65
886.777
533.065
228.134
598.117
634.871
815.311
763.45
4436.51
4893.43
4766.35
5294.12
5116.22
4613.73
4181.71
4658.81
4700.19
4684.88
4647.29
4172.59
3234.11
3026.41
2727.13
4330.35
3870.97
3719.83
1193.7
1562
2949.08
2410.7
2389.01
2583.41
2473.65
2972.53
4898.96
5258.75
5318.35
4874.33
5066.67
4634.6
2458.97
1952.26
519.435
2769.55
3787.29
3405.4
2969.58
1675.32
1674.18
2318.24
2015.39
1496
2150.17
2599.12
2516.49
3049.89
2373.65
2417.55
2381.31
2366.88
3067.62
3347.32
2636.87
2519.84
2622.33
2915.6
3121.41
1131.7
1204.61
847.49
2866.15
2851.73
4515.02
4062.93
4085.43
4103.69
4066.21
4514.6
4628.09
4229.95
4196.1
4130.03
4186.67
4602.05
2928.21
2898.72
915.071
915.024
2011.11
1697.5
4123.29
3070.95
3342.18
4196.04
4496.92
3596.92
3655.59
1499.25
640.127
564.092
3020.44
2954.37
3100.54
2015.3
2700.41
2762.74
3519.43
3192.35
3169.03
3178.83
3192.13
3498.24
655.154
622.773
2766.32
916.804
933.593
911.214
906.631
2704.71
2914.03
979.379
996.136
945.882
963.863
2884.8
438.881
452.599
412.261
425.129
1655.86
1061.83
1097.99
872.525
731.773
535.152
447.566
887.197
1797.56
1466.44
1608.98
946.46
1252.63
2436.86
1783.52
1499
1548.05
3774.56
3675.26
3440.8
3659.67
1562.66
1667.54
1645.01
1512.84
1671.78
1488.63
1094.75
965.693
881.135
1147.25
1328.43
221.447
315.421
3963.08
2720.82
2813.04
562.031
2723.78
3664.56
3638.83
2752.08
2463.63
2765.14
2765.87
3929.09
172.895
200.567
2622.16
1631.69
1684.1
654.088