/*--------------------------------*- C++ -*----------------------------------*\
  =========                 |
  \\      /  F ield         | OpenFOAM: The Open Source CFD Toolbox
   \\    /   O peration     | Website:  https://openfoam.org
    \\  /    A nd           | Version:  dev
     \\/     M anipulation  |
\*---------------------------------------------------------------------------*/
FoamFile
{
    format      ascii;
    class       volScalarField;
    location    "1300";
    object      yPlus;
}
// * * * * * * * * * * * * * * * * * * * * * * * * * * * * * * * * * * * * * //

dimensions      [0 0 0 0 0 0 0];

internalField   uniform 0;

boundaryField
{
    inlet
    {
        type            calculated;
        value           uniform 0;
    }
    outlet
    {
        type            calculated;
        value           uniform 0;
    }
    ground
    {
        type            calculated;
        value           nonuniform List<scalar> 
5358
(
44566.7
44567.8
44567.9
44568
44568
44568.2
44568.3
44568.5
44568.8
44568.8
44568.8
44568.5
44568.3
44567.9
44567.7
44567.5
44567.4
44567.3
44567
44567.1
44567.4
44567.6
44567.5
44567.6
44567.6
44567.7
44566.4
44566.6
44566.7
44566.6
44566.5
44566.5
44566.4
44565.3
48110.8
48109.4
48109.4
48109.2
48109.1
48108.9
48108.3
48108.9
48108.5
48108.1
48107.8
48107.3
48106.5
48106
48106
48105.7
48105.1
48105
48105.6
48105.7
48105.7
48106
48106.6
48106.2
48106.9
48107.4
48106.7
48107.6
48107.5
48107.7
48107.9
48108
48108.1
48109.3
50579.1
50577.5
50577.5
50577.4
50577.4
50577.1
50577.3
50578.1
50577.9
50577.9
50578
50578.2
50578.5
50578.7
50578.7
50578.5
50578.6
50578.5
50578.3
50577.8
50577.6
50577.5
50577.5
50576.6
50576.9
50577.8
50576.3
50576.5
50576.1
50576.4
50576.6
50576.7
50576.6
50578.4
51870.3
51867.6
51867.1
51867.4
51867.5
51867.1
51867.9
51867.8
51867.7
51867.8
51867.7
51868.3
51868.3
51867.9
51867.8
51867.3
51866.8
51866.8
51867.1
51866.6
51866.8
51867.6
51867.8
51867.7
51867.6
51868
51867.2
51867.5
51866
51867.1
51866.7
51866.8
51867.1
51869.8
52383.7
52380.1
52377.9
52377.6
52377.3
52376.1
52376
52374.1
52373.3
52371.3
52369
52365.1
52362.4
52360.2
52358.6
52357.1
52355.4
52355.8
52357.5
52361.1
52363.5
52364.8
52366.7
52368.8
52371.2
52372.7
52373.6
52375.6
52375.9
52377.6
52376.7
52377.4
52379.4
52382.7
52437.1
52433.2
52428.4
52426.5
52426.1
52422.6
52418.9
52413.7
52408.3
52400.7
52393.3
52384.8
52374.7
52364.4
52358.9
52353.9
52351.1
52353.5
52359.1
52365.7
52373.8
52382.5
52390
52397.3
52403.5
52409.2
52413.5
52417.9
52421.5
52424.7
52425.4
52426.5
52431.2
52435.1
52230.5
52225.4
52218.9
52214.1
52211.1
52204.2
52195.8
52185.2
52173
52158.4
52139.5
52115.3
52092.3
52068.6
52050.2
52039.2
52035.4
52042.1
52055.7
52075.9
52095.2
52111.6
52128.7
52144.3
52160
52172.9
52183.3
52193.3
52201.7
52207.6
52211.5
52214.9
52222.1
52225.7
51885.1
51880.2
51870.7
51861.7
51854.4
51843.6
51828.5
51809.4
51785
51754.6
51719.9
51680
51627.6
51573.1
51533.3
51511.5
51508.4
51523.6
51551
51587.4
51627.5
51665.7
51700.4
51731.6
51759.9
51784.7
51806
51823.2
51838.3
51848.7
51855.4
51862.8
51872.8
51877.6
51474.8
51468.9
51455.9
51443
51429.7
51413.2
51390
51358.9
51322.2
51275.7
51211.5
51128.9
51051.7
50981.4
50925.4
50894.1
50890.2
50910.7
50948.4
50996.3
51047.3
51103.4
51163.2
51219.8
51269.4
51313
51348.3
51377.7
51402.2
51419.6
51430.8
51443.7
51456.2
51462.7
51042.7
51034.9
51020.3
51001.8
50981.7
50955.8
50924.2
50879.1
50820.1
50746.5
50667.9
50571.6
50460.8
50350.2
50256.9
50205.2
50198
50226.2
50286.7
50360.6
50438.4
50516.5
50591.4
50659.5
50725.9
50795.2
50858.2
50904.3
50938.4
50963.9
50981.7
51000.7
51016.5
51024.5
50613.8
50604.6
50588.3
50565.1
50537.5
50501.4
50454.3
50396.8
50329.2
50258.1
50169.5
50049.5
49896.3
49734.3
49588.4
49488.1
49443.6
49463.9
49555.9
49667.9
49788.7
49903.5
50010
50105.3
50189.8
50268.3
50346.6
50419.1
50470.3
50506.2
50534.8
50559.7
50579.2
50588.9
50203.2
50193
50174.6
50148.3
50113.6
50068.2
50009.4
49954.5
49892.3
49826.9
49767.9
49801
23294.2
22957.9
22473.9
22126.2
22162.4
22505.9
22744.4
22922.7
23092.5
23260.3
23410.3
23537.6
23641.1
23725
49898.4
49955.3
50015.3
50066.1
50105.2
50136
50159.5
50170.8
49818.5
49808.1
49788.3
49759.4
49719.6
49667.9
49617.3
49566.3
49514.8
49488.6
49581.3
50217.2
22463.1
23846.7
10204.4
9702.31
7454.14
11235.4
21105.7
21134.3
21398
21707
21954.6
22161.3
22321.4
22442.7
49530.2
49543.6
49600.4
49654.5
49702.5
49739.4
49766.1
49779.1
49463.8
49453.3
49432.7
49402.7
49360.1
49314.8
49270.5
49223.2
49186.7
49215.9
49521
50936.2
24441.7
32390.2
9530.62
7119.69
9535.58
25292.7
21807
21108.7
21559.1
21853.3
22048.2
22186.7
49234
49183
49235.5
49287
49334.4
49374.9
49403.8
49418.2
49140.1
49128.9
49109.2
49079
49039.1
49000.6
48958.1
48910.8
48881.3
48934.7
49364.8
51278.8
25306.3
13556.4
22142.2
12212.5
12575.9
3404.75
12995.3
13844.5
36743.9
23570.8
21866.6
22037
22203.7
48982.9
48872.8
48915.7
48966.1
49008.7
49045.8
49074.6
49089.9
48845.7
48834.6
48816.2
48787
48752.9
48717
48671.3
48618.7
48579.1
48610.5
49075.3
51387.6
26114.6
8301.27
2342.18
3584.05
5268.84
3766.48
2551.35
4983.17
3978.3
33586.6
25984.1
22572.5
22110.4
22251.5
48746
48605.7
48637.8
48684.7
48723.8
48754.5
48778.8
48794.2
48577.9
48567.9
48551.1
48524
48494
48457.2
48406.6
48344.8
48281.1
48268.5
48801.6
51693
27194.4
8096.04
27348.6
27822
22295.2
42296.8
31137.3
22834.8
22394.4
22306
48495.4
48366.1
48392.3
48434.9
48472
48496.9
48515.8
48528.5
48334
48324.8
48310.1
48285.7
48257.6
48218.5
48163
48090.1
47996.9
47953.2
48638.6
52113.3
28074.8
15769.2
13305.7
17340.7
9202.99
35426.5
29640.5
22879.2
22389.7
22375.1
48227.4
48136.6
48168.1
48208.6
48243.9
48266.4
48280.5
48290
48110.4
48101.6
48089.2
48066.6
48037.9
47996.2
47936.1
47851.6
47725.9
47649.7
48413.8
51953.7
27915.4
27053.2
1428.24
2149.58
19721.8
31534
17808
29331
27172.3
21935
22211.1
22440.2
47949.8
47906.3
47953.6
47998.1
48033.2
48053.4
48064.6
48073.4
47901.8
47894.5
47883.4
47860.4
47830.1
47785.4
47719.2
47620.4
47454.2
47319.6
48043.2
51283.8
27292.5
25170.6
6236.03
2217.63
1322.71
2311.62
2506.64
27641.3
27624.6
21948.7
22480.5
22476.2
47662.8
47674
47743.8
47794.8
47832.2
47852.4
47865
47873.1
47705.7
47698.3
47686.5
47663.2
47628.9
47579.4
47504.1
47387.6
47172.7
46949.6
47533.7
50297.8
26366.8
24203.2
17011.8
2216.22
1890.67
7210.93
19597.4
24228.2
34147.6
29271.4
22526.4
23626.9
22481.8
47368.4
47440.8
47536.8
47595.1
47636.8
47661.7
47675.6
47684.7
47518.7
47510.7
47498.4
47474.5
47434.3
47376.2
47290
47152.5
46884.4
46547.9
46926.1
49187.7
25345
23572.1
17158.2
12525.6
13998.6
13565.4
17329.9
16585.3
26484.5
35546.5
29843.8
23379.2
25285.9
22435.4
47074.8
47211.4
47332.6
47400.5
47448.7
47478.5
47493.9
47504
47337.4
47329.3
47315.8
47290.9
47246.4
47177.2
47075.7
46916.2
46598
46140
46279
48077.4
53620.4
51326.3
49961.4
44004.1
40654
36895.1
32092.1
49326.7
66806.4
76393.7
64779
60426.8
55336.7
47193.6
46808.9
46996.7
47140.3
47214.9
47267.8
47299.6
47317
47327.7
47160.9
47152.2
47137.6
47110.9
47062.9
46984.5
46867.2
46678
46312.4
45744.4
45662.3
46932.1
52361
52080.6
53545.9
52128.3
47483.6
42329.5
40353.8
51677.9
64075.4
71093.3
62141.6
59038.9
54232.1
46854
46576.1
46802.2
46955.1
47034.3
47090.2
47124.3
47143.4
47154.2
46987.6
46978.3
46963.4
46935.9
46884.1
46799.8
46668.2
46450.5
46038.1
45372.1
45084.6
45801.4
50961.9
52486
55755.4
56246.4
52029.3
45486
44113.5
53760.1
62823.4
67474.8
61448.6
58938.5
53345.1
46605
46358.1
46614.3
46771.7
46856.7
46914.9
46950.9
46970.4
46982.2
46816.6
46807.2
46791.2
46762
46707
46616.7
46473
46231.9
45776.2
45026
44554.6
44752.7
49564.1
52026.5
56431.5
58536.6
54530.5
47093.1
45211.7
54955.5
62203.7
65011.5
61328.2
58671.8
52586.3
46408.7
46153.9
46430.7
46590.5
46679.8
46741.1
46778.8
46798.8
46811.3
46649.3
46639.2
46621.9
46590.7
46531.6
46435.7
46283.3
46021.8
45530.6
44711.5
44079.1
43815.1
48236.5
50788.7
56120.9
59917.9
56437.4
48423.4
45166.1
55585.8
61850.1
63308.3
61106.4
58128.4
51927.6
46244.7
45965.6
46252.1
46412.8
46505
46568.7
46608.1
46629.3
46642.5
46484.3
46474.1
46455.4
46421.6
46359.9
46259.2
46099.9
45822.7
45305.2
44432.8
43663.6
43001.4
47017.5
49118
55496.5
60657.2
57521.3
49057.9
45285.6
55933.4
61586.2
62100.6
60643.5
57433.1
51351.1
46102.4
45793
46080.4
46238.8
46332.9
46399.1
46439.8
46462.4
46475.7
46324.8
46314
46293.9
46258
46194.1
46090.5
45926.6
45638.6
45101.7
44192.1
43309.1
42310.1
45912.6
47411.4
54970.1
61038.6
57963.4
49333.6
45333.2
56025.6
61307.2
61173.7
59997.6
56680.3
50839.9
45975.2
45636.5
45919.1
46073.2
46168
46234.1
46276.4
46300.8
46314.1
46167.2
46156.1
46135
46097.4
46032.4
45927.5
45760.4
45468
44920.3
43987
43012.7
41737.5
44947.9
45933.4
54845.7
61406.9
58306.1
49601.5
45471.2
56040.8
61075.2
60451.9
59289.9
55944.8
50385.7
45861.2
45496.4
45767.1
45913.6
46007.8
46073.4
46115.7
46140.6
46154.2
46022.5
46011.3
45989.4
45951
45885.7
45781
45613.2
45319.1
44766.6
43818.4
42771.9
41268
44093.9
44713.3
54695.3
61347.2
58183
49524
45300
55733.5
60627.2
59699.8
58463.8
55184.9
49962.1
45760.8
45377.3
45634
45771.3
45863.7
45927
45969.4
45994.6
46007.9
45873.1
45862.1
45840.2
45801.7
45737.1
45634.2
45468.4
45177.7
44629
43679.1
42579.4
40914.8
43394.3
44150.2
55396.5
62042.1
58958
50016.4
45826.1
55943.8
60513.8
59213.7
57821.5
54547.6
49588.3
45667
45268.8
45506.3
45630.7
45718.4
45778.5
45819.1
45843.7
45856.3
9799.34
9805.76
6558.56
23197.9
16813
11154.6
23451.3
9646.42
3675.06
16813.5
1406.04
7851.84
12197
1831.29
1151.05
1408.18
2815.3
26180.5
5728.94
903
13258.2
1813.26
4115.98
22784.9
14104.9
1827.27
3808.98
4782.89
9557.45
3036.11
26805
4183.46
9758.85
3332.6
7387.61
19568.5
3086.6
8832.36
20626.7
28539.2
8419.17
3121.4
21960.2
46795.6
18732.3
16105.3
433.731
1083.72
11701.2
687.703
10391.9
10439.3
9578.86
21565.2
12999.9
1796.36
19893.6
422.339
2492.79
3847.88
1689.34
5267.54
15065.2
11992.1
1504.65
323.937
2201.68
1612.43
222.998
442.265
7046.24
7072.86
8522.04
8060.29
11992.9
28429
8405.23
483.905
15650.8
6103.24
442.569
14024.9
15866.9
3901.55
8605.11
5635.41
12052.3
16392.9
662.887
8122.06
13808.8
18115.5
16120.5
5394.22
4003.34
22052.1
10072.5
21665.3
22289.9
9906.18
11304.4
13162
5061.53
21462
13968
10655.4
21058.1
21154.5
12946.7
20007.1
34961.6
13916.2
718.317
7663.45
4306.78
2884.57
1307.99
5958.81
9407.15
11159.5
9508.38
2389.86
8269.91
1516.13
25287.8
29884.8
24102.3
20929.3
39410.3
29192.3
13163
14112.4
25734
12129.9
1329.27
4756.57
12240
8400.28
4887.51
1912.16
2974.28
304.296
13320.5
3878.37
13516.3
8016.82
27765.5
26934.9
31671.7
14736.7
16517.6
26608.5
8205.27
12092.1
3956.85
3781.81
12826.7
58755.9
25530.6
4354.4
16988.2
18504.2
3821.69
5463.21
4469.04
14567.3
40911.6
20003.1
16817.2
16640.4
27747.8
7886.16
2294.01
2424.79
11982.4
11371.6
28824.9
2768
3429.03
10935.3
3486.84
2770.63
7421.83
9187.04
1972.16
22871.8
8621.68
11530.8
4817.66
29236.4
13918.7
9759.1
7931.57
2808.33
2247.14
3650.95
4168.54
8790.89
22717.2
8787.7
8220.75
4193.64
4407.64
25920.6
1061.76
20960.5
3284.65
2385.34
23256.2
4265.29
3414.85
38640.7
13305.2
4673.07
7329.96
6141.05
4386.74
5927.93
13470.2
2246.3
1791.97
7945.74
6572.13
1028.02
3405.06
1788
3850.61
3085.02
2657.24
6215.8
15471.2
18154.7
2988.42
6363.18
7805.38
2690.38
10787.2
10327.9
5263.84
12505
8932.57
5861.32
10304.9
7052.07
4164.14
1494.31
851.754
22195.5
1247.85
1857.01
7453.88
8888.39
24211.1
7154.64
1551
7510.84
23438.2
9759.63
2667.12
623.063
13474.3
2190.99
5750.44
12192.2
1260.01
1203.99
1635.42
2847.35
1593.9
10361.4
105.302
12161.8
1478.35
9092.02
656.803
2603.68
12930.6
1657.81
3515.87
1485.71
6017.32
16267.4
14731.7
6489.72
5368.99
3333.51
4732.78
4480.25
2937.4
3329.47
1933.55
5901.11
4408.69
7594.02
3217.61
13783.7
4191.33
4284.49
7289.14
1084.99
23981.2
7916.02
4467.58
13010.2
5326.53
4065.47
3782.34
1653.04
7807.32
1852.74
1898.82
1977.06
2981.52
7798.82
1569.25
10963.9
2986.38
2142.31
6042.26
2566.91
21696.1
2238.83
5277.65
3663
11815.8
9658.62
11397.5
3325.33
2344.16
29244.8
10587.2
3607.36
9546.34
8652.9
8056.31
7249.55
5502.61
6207.87
6427.9
5447.55
22725.2
22860.3
9073.6
6035.46
5729.21
6361.28
6133.29
5486.99
21824.9
8915.97
9592.98
9896.66
14857.7
4847.16
3192.67
2597.22
4791.33
1351.17
6668.66
8570.69
7592.03
15330.6
13283.4
3661.83
2944.67
9387.02
7252.89
9576.02
22922.5
5314.55
12253.4
13729.2
15241
2402.88
7894.54
15053.6
8140.66
2260.47
756.62
2282.52
904.501
1147.18
2101.76
607.947
3489.38
12423.8
1285.3
6555.87
4237.42
5747.09
4645.81
476.948
2275.44
487.059
1975.09
580.298
6147.77
8455.74
6063.73
5745.42
598.489
1007.67
5590.74
6074.82
2513.77
2044.03
2496.11
3096.41
7152.15
7009.62
2692.08
13701.5
8175.87
3915.63
4062.18
1172.06
3791.63
8179.16
7663.35
4412.02
3477.54
4394.2
22295.9
21632.3
21834.6
26181.6
20419.6
29970.7
10308.3
10724.3
13035.8
7082.54
9057.33
7936.98
9095.1
6084.69
5886.68
26661.1
10223.7
3428.9
12274.5
12437.4
12349.1
11376.1
5447.25
2857.5
14243.5
6118.03
5039.46
5175.79
4379.69
1465.56
669.558
1623.51
1573.65
6807.88
17668.1
16561
6923.82
8039.18
2719.26
5917.78
15588.4
14653.6
3488.43
3107.01
3668.32
2599.69
4402.55
4287.48
17874.9
16067.9
18161
1203.09
8440.9
10099.1
3856.03
3639.57
4099.76
7538.54
6237.06
3075.9
15278.6
12516
15673.8
2868.87
2670.08
9604.02
21716.6
24630.9
3727.67
4891.75
5481.1
1046.14
326.575
1433.38
3471.13
3296.5
1071.67
3217.12
98.7409
1393.31
492.935
479.288
4259.1
9179.32
2538.39
6318.24
6419.24
7666.85
2831.65
1146.25
15838
14558
17578.3
21937.6
21761.4
17715.5
15917.6
16226.7
9997.76
550.445
387.825
8622.77
10602.1
4565.98
7601.3
5712.29
3129.9
3007.21
442.878
703.811
15415.3
3723.06
20069.4
3103.35
3134.01
4190.58
1259.15
11844.4
11956.5
12040.9
1722.33
432.648
1574.23
1789.18
698.298
893.904
2650.59
1935.39
19864.4
9203.41
27085.5
2016.62
1517.9
987.583
3624.24
2379.87
2771.2
9697.38
2877.43
4110.86
3554.41
3630.64
2856.6
1282.96
3631.63
8772.08
1849.86
1483.49
3345.36
3843.91
23196.6
24332.5
21181.2
3585.81
9403.23
2109.28
4508.51
2495.15
1506.47
1641.37
3684.29
716.88
1584.54
2663.95
3111.87
1727.75
6429.98
4449.83
118.92
9380.11
8454.44
9785.92
5228.35
5556.98
1988.01
21350.8
19269.3
17464.6
744.921
2564
234.154
1097.33
1658.69
1358.06
3896.52
4433.84
5691.94
3115.67
2109.74
1836.9
428.743
2546.23
409.245
2186.71
417.684
234.74
440.365
2826.22
3901.73
2337.31
2438.43
556.671
788.42
2545.8
2157.68
472.973
448.702
6231.41
5530.45
6336.5
7646.81
4696.14
5145.44
208.669
509.94
8764.12
8237.32
7746.61
7139.14
7828.52
8674.65
2086.52
2011.35
6406.77
6551.68
6293.4
8183.74
4060.95
17040.9
7770.8
17298.1
10615.4
8844.85
8795.56
298.383
3075.56
2929.22
9726.3
9565.64
9541.39
9621.78
9653.47
10740.5
5976.24
6515.03
5813.9
18472.1
17093
17678.2
1618.37
2105.14
1375.97
1348.78
8300.71
6211.07
5250.29
4189.42
553.769
3810.75
368.246
9906.73
16826.4
10164.2
8872.43
2815.18
4444.67
4743.64
10289.3
4578.89
4708.25
12685
20189.2
28257.2
22654.5
20134.8
26683.9
4033.93
12084.2
5678.46
3748.45
7536.86
8921.09
6277.85
12448.6
12494.6
12310.2
2987.28
2973.36
2956.82
2975.46
8312.82
12403.7
22076.5
8164.38
11205.8
7862.16
5003.86
8026.64
2975.64
181.52
224.899
3539.52
6338.08
14122.8
841.092
863.354
4346.21
752.899
843.555
4834.29
396.07
929.63
3428.68
3501.9
3313.52
3467.59
1684.47
1246.95
1475.87
1619.06
618.626
377.437
156.636
277.526
390.497
22009
23870.6
27291.2
6051.05
5766.75
3681.17
2013.68
5588.32
5392.02
3198.74
3266.54
3130.76
3176.54
2926.79
2431.42
3687.52
3581.74
11835.4
4536.86
4701.68
3990.84
4421.9
11617.9
2991.24
11810.2
11752.7
11499.6
11728
3064.82
3129.13
11789.8
12009.2
11218.6
11487.3
3012.96
2651.7
3226.31
7731.66
7937.11
3366.88
8813.04
8227.26
8251.27
9753.43
9497.38
18054.4
14235.3
8917.51
14445.3
15589.7
7278.44
9808.55
8413.14
8514.35
7615.38
7921.51
8967.47
2816.24
2532.4
4635.14
5100.09
2427.36
9475.67
8862.08
3774.79
3517.02
3256.28
4292.33
12380.1
13226
11050.8
11682.9
4624.06
1229.56
3027.88
6681.09
6189.35
3218.33
7058.32
2914.3
9195.21
9581.47
11056.7
7528.15
8444.07
8510.61
5829.9
15885.4
15514.8
13207.2
14037.9
5459.95
2603.3
2407.2
4747.87
5140.49
4114.21
6395.59
5813.64
5449.81
1538.29
1688.85
400.204
345.461
1080.12
2865.69
2874.4
3214.15
360.646
163.326
1645.4
349.823
602.086
498.35
495.403
2925.56
955.701
1000.58
870.403
936.318
2811.99
2681.71
980.411
2714.76
2667.09
813.109
589.222
10519.4
4294.06
4868.78
4234.99
4218.49
10337.8
3082.22
4046.42
1406.74
8894.22
7484.57
7704.43
5798.8
6723.32
8461.03
2940.02
3024.29
10172.5
5096.59
4396.42
652.042
3719.65
1739.62
1748.83
1659.68
6219.76
6197.68
5718.73
5968.85
1977.1
3049.55
3084.18
8003.32
7259.11
7024.66
7679.14
7513.16
8611.22
4091.65
6403.14
3169.43
618.437
5439.87
5417.63
4541.41
4541.77
4587.94
4586.05
4283.19
8209.76
9504.15
5660.34
6708.97
1428.42
3272.71
2123.94
3484.37
3435.63
2814.2
2749.25
2955.79
2869.15
12059.1
12112.1
12330.8
1701.78
453.995
1587.41
2241.63
1167.3
8863.44
8134.65
8333.83
9462.93
535.58
999.115
3840.86
2120.7
485.163
4074.19
2092.45
2730.87
4018.89
1921.86
1757.57
841.865
5913.4
89.2528
260.674
3551.32
136.894
813.886
3633.62
697.168
3946.24
3472.46
1069.94
1221.25
835.08
887.157
2404.81
1208.3
2636.87
946.223
1526.05
1126.47
1661.97
251.606
4953.43
133.829
159.797
4644.27
1606.71
1442.5
8698.83
2688.09
2119.05
4792.5
4588.83
2720.1
4027.58
5220.97
5432.14
3155.39
6143.77
4436.73
2305.43
11300.3
10853
3969.95
759.801
4381.76
6380.65
656.1
800.115
791.169
3226.2
2745.37
3126.53
10258.4
2558.92
3737.41
2745.17
7861.18
9439.57
1018.76
1598.69
2717.07
8449.29
7993.99
1816.1
1296.21
4518.8
338.946
4565.2
2994.93
11226.7
1427.91
3524.96
4036.93
4536.97
4965.52
12094.2
11325
11707.3
12065.9
11415.3
4299.19
3921.21
2117.14
10161.5
10981.8
2677.2
2632.38
4155.92
2758.24
7594.55
7611.92
8237.07
3140.25
2934.09
7302.12
2358.35
2501.57
5640.46
366.625
395.235
372.515
367.159
5913.85
422.786
346.136
5218.06
6004.76
401.596
395.063
377.872
400.423
5991.21
6430.31
380.007
375.637
391.796
381.332
6271.49
10255
9163.14
9072.04
8738.41
8880.21
10208.7
5135.05
855.028
5284.43
4404.82
1831.57
4854.52
7432.14
6981.97
1959.33
3180.2
639.434
697.635
3021.75
123.278
2675.62
2469.44
2777.28
3843.76
2813.66
1990.47
6029.99
6163.61
590.896
2459.21
621.616
1328.51
1916.49
2913.62
3342.72
1168.42
4140.18
3889.78
2991.63
1801.73
1414.57
3151.46
4950.45
1180.25
2345.79
2168.44
438.24
2485.71
453.919
333.927
362.702
2084.7
2231.83
2165.73
512.644
582.765
2444.21
2435.42
2928.01
2855.22
881.272
2366.28
770.661
846.51
648.188
743.816
2208.87
438.687
392.566
2927.44
977.638
528.054
1005.41
1022.01
3259.65
521.595
494.802
2376.31
2603.83
5956.24
5393.22
7236.99
6591.71
3335.89
3383
3282.12
3344.45
338.486
1050.69
4299.15
2097.42
1066.13
1237.3
2325.83
4409.26
3542.76
1280.72
1338.7
1587.17
3727.78
518.36
3207.93
3110.03
2209.5
2026.6
2615.49
2285.65
1853.88
1804.85
1983.61
1881.08
10139.4
14728.9
13523.4
7725.2
3174.02
9343.19
10650.8
10605.4
13075.5
12808.7
12062
2885.63
2784.15
3307.17
13885.8
5159.26
12895.6
8094.69
7993.98
8333.62
2374.62
2245.19
2501.28
2992.12
5307.06
5014.68
2380.66
2720.87
2159.65
4480.87
5700.81
5255.16
7779.14
7671.61
8036.4
21898
22674
23003.2
37249.8
34721.2
38067.9
34781.4
32616.7
28097.6
4324.68
11937.4
14947
32318.4
30196.8
32914.2
1385.42
1682.67
1601.42
2571.4
2768.76
2532.62
28186.9
27240.3
26765.2
2975.6
2976.98
2411.81
2112.12
1644.69
1040.45
135.961
327.495
2312.3
2405.01
2377.7
2804.55
2421.7
709.202
378.252
29270.4
30472.9
25527.9
10145.6
9980.22
9505.17
11364.6
10004.5
9296.91
10585.7
10640.2
9766.39
3780
3216.52
3040.95
1289.36
7204.53
8150.29
8237.3
1766.73
1047.28
1014.27
642.43
586.199
1016.87
1580.43
366.503
755.981
11586.2
11687.2
13153.8
1861.12
1515.09
1555.33
1326.29
789.424
1600.41
1651.27
1880.98
4714.78
1194.4
4580.98
4282.19
4238.26
4846.53
9540.16
3322.58
8591.37
4004.72
7745.72
7451.61
6877.86
2597.87
2425.43
2601.01
19767
21583
20272.1
504.535
991.565
402.049
865.847
12555.5
13952
4689.2
826.892
1364.11
805.108
10497.4
8401.46
8175.66
17998.1
17132.4
22176.9
1982.95
2019.84
1881.05
474.097
338.512
1586.84
1777.12
1854.36
13849.2
14543.7
15928.8
11765.2
13082.9
12691.7
245.559
2127.01
296.659
665.228
808.069
415.753
504.859
628.239
476.816
7758.66
9519.87
10108.2
502.137
419.646
2646.24
2651.97
2358.59
733.784
8144.56
7940.35
7866.77
17708.1
18333.1
18845.5
17041.8
17844.7
16995.8
4533.04
5164.51
5725.56
4097.61
4216.69
4133.12
14002.6
9411.79
9358.35
11141
9708.48
12612.8
9304.37
9350.42
11075.5
932.532
4377.3
4272.75
4144.06
2334.14
2318.24
2874.93
1002.17
8735.74
9511.94
10184.8
8217.27
1899.63
11253.9
10400.2
9591.43
8996.78
2383.23
2812.95
10007.5
2627.88
9891.8
10541.2
8924.99
2352.43
2208.05
2937.34
2983.39
29724.2
23449.9
24095
12811.8
12593.8
13397
12362.6
12773
12129
1769.81
5466.81
6609.26
5872.14
7467.72
8109.5
8330.07
6517.55
7628.32
5929.54
2513.93
3012.04
2326.05
2268.54
169.873
208.085
257.7
4081.69
2904.07
2524.89
12878.9
5080.29
14007.4
15434.8
13417.4
13122
14093.8
13763.2
16048.8
601.552
589.365
495.412
478.752
8309.71
7982.92
7929.45
3712.59
4562.67
4699.13
301.603
19448.7
18957.4
14989.5
5037.76
5377.84
4200.67
5402.19
5633.96
1937.73
17873.3
17922.9
19938.7
16910.8
14712.6
14420
15171.5
14925.5
16846.6
353.343
397.738
435.486
435.077
7967.73
7550.36
7449.24
2589.31
2381.95
2828
4400.94
4169.52
4890.01
4734.38
3245.33
3315.3
4943.36
5087.05
4206.46
4248.15
2639.87
3215.97
2823.04
1200.37
8885.06
9469.82
9043.44
5976.23
6720.99
6208.36
8529.81
8507.66
8732.5
8130.26
8262.17
8309.42
4340.26
5426.41
5566.52
962.029
445.461
407.721
3245.77
3141.73
3213.78
796.058
3139.06
2513.72
5482.6
5659.65
4924.04
6946.7
6765.21
7129.21
6011.58
6388.76
6546.13
2196.04
1043.64
1355.39
1371.12
3363.44
3452.35
1189.67
1607.1
6415.55
6832.44
6744.13
728.953
759.939
656.724
592.503
5513.43
6218
6012.69
9616.37
4220.94
8493.02
3938.55
3679.35
3985.62
1613
1449.91
1484.35
1772.79
1731.66
2254.24
2453.14
2045.44
6782.37
7153.49
7016.76
985.268
1263.28
1626.73
1931.29
7208.72
5913.51
4343.88
2864.96
2898.79
2951.19
2980.57
9797.69
10724.1
10742.3
1848
2225.01
3471.52
4179.4
3567.14
4359.8
4181.06
1708.27
5641.16
7053.62
6314.05
534.669
209.448
638.492
612.362
1510.72
1270.77
1481.51
1402.37
1492.18
1307.25
1646.88
2165.87
2039.79
2733.24
1557.58
9558.86
10415.1
11106.9
2912.78
1881.64
2921.64
3227.27
7447.75
6870.06
5644.51
7277.53
7659.9
8661.2
557.83
566.275
1518.17
1127.5
553.166
2703.77
2314.21
2411
315.944
252.885
177.597
146.033
12973.1
11484.3
11056.1
1217.89
1290.86
1788.96
2213.79
1880.72
3024.54
1255.36
937.531
1108.65
2109.98
2216.71
642.485
659.536
1751
4102.61
3014.06
1020.11
1519.05
8757.55
10032.1
9378.48
5166.5
4942.62
5324.55
4603.64
4375.64
4710.88
1455.76
4692.78
1948.31
2154.44
1729.9
7766
2999.48
7781.31
1721.47
1646.84
1806.89
1415.63
1187.16
2189.97
7368.17
7128.61
7647.41
574.1
458.371
5451.9
2429.68
2952.65
3824.76
3789.58
1580.12
1649.46
2248.59
1400.22
7376.88
7331.13
3095.58
2818.87
2344.37
1782.18
10525.2
9160.85
10578.7
10612.8
9794.24
8892.55
10881.4
10495.5
11167.4
3668.73
4617.62
4344.69
3732.9
3860.92
2766.79
905.652
556.034
11476.8
10923.4
9961.37
12052.3
11534.7
11519.3
564.857
576.118
1499.05
1160.98
6521.74
7975.75
9561.33
5055.03
618.461
4114.84
9681.46
10668.5
10314.2
6877.28
4418.83
545.553
8448.68
7279.3
8749.94
4883.18
2091.4
4293.97
4824.55
5266.91
2628.14
8026.32
7214.5
7812.47
6377.66
7178.98
612.037
671.684
2568.89
2631.34
7087.11
6927.09
8064.44
2061.97
2610.97
2835.63
561.531
822.091
434.98
474.869
1218.51
1160.84
1022.03
659.9
1425.29
1053.42
1102.25
1052.18
6162.03
5782.68
5936.23
5375.73
5298.63
5647.55
4527.79
4944.56
5006.9
446.479
2320.21
486.829
946.392
898.569
558.6
594.186
971.3
973.177
1345.81
1312.66
980.992
644.428
688.92
2187.45
2149.52
3470.13
3506.47
7976.24
7964.59
8137.17
465.134
464.056
325.366
463.977
1409.43
1395.1
1208.46
8105.36
7948.43
8057.17
7457.8
7749.52
7928.48
4656.14
4834.15
4310.28
3074.88
4274.98
4352.76
4500.79
17523.1
15970.8
19145.8
3563.77
7270.91
1506.08
2428.4
5553.98
2294.38
10413.1
11163.9
10039.3
5401.67
6698.57
2746.78
4109.63
2026.42
2145.83
1836.38
1927.99
2988.15
2590.12
2469.09
6753.69
6597.74
6526.02
5235.4
6169.02
6562.11
1762.07
1718.59
1625.86
1046.27
1217.77
985.373
1617.45
1837.31
1845.31
1837.72
1845.25
1605.56
2508.78
3233.35
3363.54
3384.37
3264.3
3721.75
2519.74
1673.14
1411.51
2449.9
1090.9
4285.02
3757.04
4165.94
2982.87
3770.66
1518.18
2423.06
1938.36
3850.27
2641.48
2691.39
2488.38
2567.42
3760.3
467.482
2164.28
2038.15
2892.92
3044.58
3180.61
2803.59
1851.75
1890.14
1775.27
1813.74
2737.91
499.772
463.629
54.6983
1182.83
1117.6
1138.89
3208.09
273.688
959.691
402.687
1636.98
1515.39
1201.46
489.297
484.806
408.877
2586.32
3002.78
680.988
703.551
428.217
405.051
4929.12
3379.61
10032.2
2424.96
2668.4
863.089
4776.32
4931.14
5128.4
3108.43
2398.75
2401
2386.83
2394.34
3061.22
631.679
661.809
5790.16
6014.58
4305.72
3117.73
2398.26
2390.47
2402.6
2402.07
3129.93
3499.56
3347.49
3990.31
2312.09
2300.58
2216.41
2319.97
1229.19
1087.06
1088.62
1741.46
402.934
430.135
350.614
369.261
625.366
391.28
362.11
854.257
469.16
1585.31
1124.73
797.863
1494.73
200.916
543.048
461.313
167.775
400.037
295.411
912.497
660.507
751.958
1431.46
1473.73
1902.1
2006.07
1700.24
1675.13
1491.04
1656.73
1743.3
1205.93
1445.4
1377.49
2727.92
3510.26
3154.08
3492.96
3551.66
2801.67
1540.3
1551.19
1347.78
1430.96
2392.12
1796.91
1149.44
1184.42
1229.22
1110.94
1430.18
2159.7
2601.98
2445.47
1919.54
947.572
3510.8
2425.14
2240.47
2687.87
2585.44
3731.58
4344.3
4900.53
3475.86
2956.41
2603.19
3956.97
2944.29
1213.47
2094.33
2138.47
427.336
1493.7
1296.71
2504.97
1971.62
1365.74
2635.77
2402.29
3254.77
703.59
638.48
551.8
1343.98
2748.11
1703.25
1795.01
2037.63
1859.39
2956.28
2505.62
2213.71
1174.74
62.5157
76.531
1965.68
2152.72
2019.81
551.505
491.242
666.52
324.092
377.622
167.152
1594.25
1649.53
768.415
1240.88
885.325
742.956
1530.42
1647.05
1474.51
2921.44
3354.38
3027.32
2514.47
2946.1
2042.28
1442.37
1476.76
1318.62
1395.37
1958.94
503.506
2447.16
334.458
426.144
753.589
760.524
572.3
703.025
370.417
696.268
933.457
100.045
516.616
895.707
940.611
1040.71
855.514
649.461
465.752
457.735
328.909
445.241
416.438
490.896
1787.13
3751.15
1117.82
9559.6
9138.41
7967.21
540.821
3034.42
2003.69
2040.53
1927.97
1966.66
2985.79
1713.87
7537.47
3109.88
2796.92
2546.71
3022.15
2864.59
1750.19
515.867
498.13
591.692
453.51
1880.13
1145.58
605.267
980.735
433.723
449.235
1164.62
4010.63
4260.34
4356.09
2525.81
2295.26
2305.17
2489.12
931.425
1160.43
1831.09
1331.27
3286.28
2800.74
3423.53
544.746
3538.64
4442.29
2506.08
2819.04
9315.88
8956.86
7421.08
10589.1
10072.7
10259.9
552.128
3066.21
3048.87
511.879
10260.1
1762.87
6232.41
1729.37
1568.24
3492.88
2762.71
2441.6
4050.11
3604.06
4090.19
3113.58
2946.27
4712.86
4369.48
4404.5
4609.99
4214.39
4158.17
4366.71
4289.49
4665.77
3062.51
3092.01
4492.03
3000.51
12276.2
4854.81
3011.35
8631.66
7513.08
6327.58
2989.13
1047.36
1058.5
1018.74
1034.73
2986.9
2952.94
1088.51
1111.55
1067.5
1076.63
2965.36
9925.03
10095.7
8264.02
7068.77
8623.2
9359.01
4222.99
2398.46
2384.35
3015.49
1851.86
1810.87
1768.37
1820.23
181.259
429.245
4699.76
4851.46
4262.51
6179.23
5790.81
6091.01
582.998
669.607
515.202
3606.83
3289.6
4161.44
1102.37
721.719
888.057
1027.2
2428.29
2898.16
1490
3452.98
832.242
923.62
575.217
548.366
3467.01
3028.74
2964.58
3147.94
3068.27
3461.42
3394.87
2814.18
2692.49
2954.88
2825.3
3382.92
528.49
522.404
1299.16
1258.03
1402.86
1512.68
1649.75
1175.62
1180.93
1264.16
1502.76
2090.68
2225.13
1867.33
1953.84
1584.26
840.152
1157.08
971.581
318.528
289.531
385.368
397.339
2260.33
2341.73
2158.55
377.967
414.397
3222.98
2730.12
2736.16
2708.89
2716.92
3240.8
3135.44
2742.14
2760.67
2740.26
2743.97
3153.52
398.304
421.272
2746.84
2389.94
3707.86
3660.29
4635.86
5099
5021.89
5145.22
5159.18
4703.48
4161.89
4701.57
4560.05
4920.94
4822.87
4298.99
4563.88
4528.44
2916.6
3136.07
4632.77
4592.02
4745.18
4828.79
3219.26
2838.49
4466.86
4630.32
2744.24
2869.09
3577.63
3757
3669.84
1507.97
2799.62
2827.11
6781.68
7218.4
7627.5
789.084
838.735
736.745
769.637
820.319
759.264
850.751
855.846
1084.54
1141.28
935.896
906.323
1170.32
1141.42
1325.16
1339.45
3005.76
1498.22
1005.67
2267.5
766.25
4059.77
4065.55
4378.34
3409.89
2356.6
2422.4
2245.14
2299.66
3322.7
5150.47
5202.82
3996
4641.79
5013.55
5131.25
774.792
3278.27
3145.18
3148.03
3306.55
3201.1
3053.4
2733.17
3356.61
3316.77
6689.98
6667.72
5975.3
5180.64
5955.09
6150.72
2536.56
1700.74
1737.85
1629.24
1664.79
2471.42
2012.14
396.683
619.448
599.097
650.247
628.143
351.803
1203.58
1306.2
1065.91
3251.73
313.301
235.514
440.649
559.3
498.598
720.959
650.344
537.274
496.307
497.296
974.361
1158.78
1132.51
1196.72
1176.02
989.714
893.54
1058.5
1029.89
1110.15
1083.67
915.847
752.504
314.694
574.552
608.912
816.076
764.158
4437.37
4895.76
4768.29
5297.67
5119.2
4614.96
4181.12
4659.39
4700.27
4686.31
4648.39
4172.42
3234.02
3025.67
2726.06
4332.59
3870.37
3720.49
1192.68
1561.3
2947.1
2408.88
2386.93
2582.08
2472.16
2971.07
4896.4
5257.06
5315.98
4873.71
5065.51
4632.56
2458.15
1954.61
518.678
2765.82
3782.38
3401.05
2965.75
1694.76
1693.67
2276.41
1974.41
1546.97
2116.28
2575.87
2475.21
3046.25
2370.74
2414.09
2378.77
2364.24
3063.36
3319.04
2543.37
2505.72
2616.34
2904.25
3114
1127.68
1216.5
858.196
2871.93
2856.81
4526.94
4073.16
4096.47
4112.44
4075.63
4525.65
4642.2
4242.86
4209.7
4141.93
4199.2
4615.8
2934.63
2904.61
933.908
929.292
2025.31
1727.76
4161.96
3098.62
3367.64
3874.27
4341.85
3912.76
3606.33
1485.84
631.11
551.485
3021.34
2913.84
3070.86
2066.28
2670.58
2862.22
3489.26
3188.69
3166.53
3160.64
3179.88
3459.65
648.472
613.643
2785.93
924.727
941.881
921.785
916.123
2727.9
2929.64
985.898
1002.23
954.245
971.303
2900.65
492.08
487.954
453.488
474.123
1657.16
1030.2
1059.04
890.515
818.984
546.55
488.61
931.956
1584.19
1524.58
1664.16
1003.54
1311.17
2484.88
1834
1549.62
1382.56
3770.2
3664.32
3436.5
3656.24
815.042
716.097
583.478
844.732
806.818
969.198
538.922
499.817
456.867
732.037
759.682
214.933
313.15
3971.81
2715.92
2813.72
567.59
2733.57
3681.82
3651
2763.91
2477.37
2768.38
2769.71
3938.27
163.067
193.645