/*--------------------------------*- C++ -*----------------------------------*\
  =========                 |
  \\      /  F ield         | OpenFOAM: The Open Source CFD Toolbox
   \\    /   O peration     | Website:  https://openfoam.org
    \\  /    A nd           | Version:  dev
     \\/     M anipulation  |
\*---------------------------------------------------------------------------*/
FoamFile
{
    format      ascii;
    class       volScalarField;
    location    "1600";
    object      yPlus;
}
// * * * * * * * * * * * * * * * * * * * * * * * * * * * * * * * * * * * * * //

dimensions      [0 0 0 0 0 0 0];

internalField   uniform 0;

boundaryField
{
    inlet
    {
        type            calculated;
        value           uniform 0;
    }
    outlet
    {
        type            calculated;
        value           uniform 0;
    }
    ground
    {
        type            calculated;
        value           nonuniform List<scalar> 
5358
(
44566.7
44567.8
44567.9
44568
44568
44568.2
44568.3
44568.5
44568.8
44568.8
44568.8
44568.5
44568.3
44567.9
44567.7
44567.5
44567.4
44567.3
44567
44567.1
44567.4
44567.5
44567.5
44567.6
44567.6
44567.7
44566.4
44566.6
44566.7
44566.6
44566.5
44566.4
44566.4
44565.3
48110.8
48109.4
48109.3
48109.2
48109.1
48108.9
48108.3
48108.9
48108.4
48108.1
48107.8
48107.3
48106.5
48106
48106
48105.7
48105.1
48105
48105.6
48105.7
48105.6
48106
48106.6
48106.2
48106.9
48107.4
48106.7
48107.6
48107.5
48107.7
48107.9
48108
48108.1
48109.3
50579.1
50577.5
50577.5
50577.4
50577.4
50577
50577.3
50578.1
50577.9
50577.8
50578
50578.2
50578.4
50578.7
50578.6
50578.5
50578.6
50578.5
50578.2
50577.8
50577.6
50577.5
50577.5
50576.6
50576.8
50577.8
50576.2
50576.5
50576.1
50576.4
50576.5
50576.7
50576.6
50578.4
51870.3
51867.6
51867.1
51867.4
51867.5
51867.1
51867.9
51867.8
51867.7
51867.8
51867.7
51868.2
51868.3
51867.8
51867.8
51867.3
51866.8
51866.8
51867.1
51866.6
51866.8
51867.6
51867.7
51867.7
51867.6
51868
51867.1
51867.5
51866
51867.1
51866.6
51866.7
51867.1
51869.8
52383.7
52380
52377.9
52377.5
52377.3
52376
52376
52374.1
52373.3
52371.3
52369
52365.1
52362.4
52360.2
52358.6
52357.1
52355.3
52355.7
52357.4
52361.1
52363.4
52364.7
52366.6
52368.8
52371.2
52372.7
52373.5
52375.5
52375.9
52377.6
52376.7
52377.4
52379.3
52382.6
52437
52433.1
52428.4
52426.5
52426.1
52422.5
52418.9
52413.7
52408.2
52400.6
52393.3
52384.8
52374.6
52364.4
52358.9
52353.8
52351
52353.4
52359.1
52365.7
52373.7
52382.4
52389.9
52397.2
52403.4
52409.1
52413.4
52417.8
52421.5
52424.6
52425.3
52426.4
52431.2
52435
52230.5
52225.4
52218.8
52214
52211
52204.1
52195.7
52185.2
52173
52158.4
52139.5
52115.3
52092.2
52068.6
52050.2
52039.2
52035.3
52042
52055.6
52075.8
52095.1
52111.5
52128.5
52144.2
52159.8
52172.8
52183.2
52193.1
52201.6
52207.5
52211.4
52214.7
52222
52225.6
51885
51880.1
51870.6
51861.7
51854.3
51843.5
51828.5
51809.3
51784.9
51754.6
51719.9
51680
51627.6
51573.1
51533.3
51511.4
51508.3
51523.5
51550.8
51587.2
51627.3
51665.5
51700.2
51731.4
51759.7
51784.5
51805.8
51823.1
51838.1
51848.6
51855.2
51862.7
51872.6
51877.5
51474.7
51468.8
51455.8
51443
51429.6
51413.1
51389.9
51358.8
51322.1
51275.6
51211.5
51128.9
51051.7
50981.4
50925.3
50894
50890.1
50910.6
50948.2
50996.1
51047
51103
51162.8
51219.4
51269.1
51312.7
51348.1
51377.5
51402
51419.4
51430.6
51443.5
51456
51462.5
51042.5
51034.8
51020.2
51001.7
50981.6
50955.7
50924.1
50879
50820
50746.5
50667.9
50571.6
50460.8
50350.2
50256.9
50205.1
50197.9
50226
50286.4
50360.3
50438
50516.1
50591
50659.1
50725.4
50794.8
50857.8
50903.9
50938.1
50963.6
50981.5
51000.4
51016.3
51024.4
50613.6
50604.5
50588.1
50564.9
50537.4
50501.3
50454.2
50396.7
50329.1
50258
50169.4
50049.5
49896.3
49734.3
49588.3
49487.9
49443.3
49463.5
49555.4
49667.3
49788.2
49903
50009.4
50104.8
50189.2
50267.8
50346.1
50418.6
50470
50505.8
50534.5
50559.4
50579
50588.7
50203
50192.8
50174.4
50148.1
50113.4
50068
50009.2
49954.4
49892.1
49826.8
49767.8
49800.8
23294.4
22958.2
22474.2
22126.4
22162.3
22505.4
22743.8
22922
23091.8
23259.6
23409.6
23536.9
23640.6
23724.5
49897.9
49954.9
50014.8
50065.7
50104.9
50135.7
50159.2
50170.6
49818.3
49807.9
49788.1
49759.2
49719.4
49667.7
49617.1
49566
49514.5
49488.2
49580.8
50216
22462.8
23844.6
10203.6
9701.62
7449.98
11233.3
21104.5
21133.2
21397
21706
21953.5
22160.2
22320.5
22442
49529.7
49543.1
49600
49654.1
49702.2
49739.1
49765.9
49778.9
49463.5
49453
49432.4
49402.4
49359.8
49314.5
49270.2
49222.8
49186.2
49215.1
49519.4
50932.7
24438.9
32383
9530.91
7117.23
9533.27
25290.9
21812.9
21108.1
21557.6
21851.8
22047
22185.9
49233.6
49182.5
49235.1
49286.7
49334
49374.7
49403.6
49418
49139.8
49128.6
49108.8
49078.6
49038.7
49000.3
48957.6
48910.2
48880.5
48933.2
49361.6
51272.7
25301.3
13551.8
22183.9
12209.1
12576.3
3401.21
12989.9
13842.8
36744.5
23563.8
21863.2
22035.2
22202.6
48982.7
48872.4
48915.4
48965.9
49008.5
49045.6
49074.4
49089.8
48845.3
48834.2
48815.8
48786.6
48752.5
48716.5
48670.7
48617.9
48577.9
48608.2
49070.5
51380.7
26101.4
8289.87
2308.33
3378.6
5242.54
3792.66
2539.31
4991.13
3951.68
33497.2
25999.9
22575.7
22109.4
22250.2
48746
48605.5
48637.6
48684.6
48723.8
48754.5
48778.8
48794.2
48577.5
48567.5
48550.7
48523.5
48493.6
48456.7
48405.9
48343.9
48279.6
48265.8
48798.1
51700.1
27193.7
8096.11
27310.4
27836.1
22306.8
42256.1
31167.5
22835.5
22395.4
22305.6
48495.6
48366.2
48392.4
48435
48472.3
48497.2
48516.1
48528.7
48333.7
48324.5
48309.7
48285.3
48257.2
48218
48162.3
48089.1
47995.2
47950.5
48639.5
52139.7
28104.4
15760.8
13337.7
17262.5
9199.95
35379.1
29545.9
22874.1
22386.1
22376.3
48228
48137
48168.4
48209
48244.4
48266.9
48281
48290.5
48110.1
48101.3
48088.9
48066.3
48037.6
47995.8
47935.5
47850.6
47723.9
47646.7
48416.4
51977.3
27936.5
27087.8
1432.01
2171.6
19641.8
31359.4
17826.9
29266.2
26951.1
21868.8
22217
22444.2
47951
47906.8
47954.2
47998.8
48033.8
48054.1
48065.4
48074
47901.6
47894.3
47883.2
47860.2
47829.9
47785.1
47718.7
47619.5
47451.8
47315.6
48042.6
51284.6
27273.4
25196
6204.48
2231.07
1332.52
2298.88
2502.93
27309
27286
21883.3
22496.7
22482.6
47664.3
47674.6
47744.6
47795.6
47833.1
47853.3
47865.9
47873.9
47705.6
47698.2
47686.4
47663.1
47629
47579.4
47503.9
47386.8
47170
46944.6
47529.1
50276.6
26301.2
24147.5
16650
2221.88
1878.2
7190.63
19648
24457.3
33954.5
29010.8
22536.8
23689.6
22491.4
47369.8
47441.4
47537.7
47596.1
47637.8
47662.7
47676.6
47685.8
47518.7
47510.7
47498.4
47474.6
47434.4
47376.4
47290.1
47152
46881.7
46542.1
46918.4
49144.9
25245.1
23448.5
17085.1
12584.2
14025.7
13616.9
17239.3
16728.2
26543.6
35477.4
29711.4
23485.4
25386.9
22447
47075.9
47211.9
47333.7
47401.7
47449.9
47479.6
47495.1
47505.2
47337.6
47329.4
47316
47291.1
47246.6
47177.5
47076.1
46916.1
46595.5
46133.8
46268.4
48020.9
53166.3
50784.2
49718
43946.4
40720.3
36923.7
32213.4
49443.4
66800.3
76397.3
64942.3
60815.2
55539.8
47213.5
46810.5
46997.4
47141.7
47216.2
47269.1
47300.9
47318.3
47329.1
47161.2
47152.5
47137.9
47111.3
47063.3
46985
46867.7
46678.4
46310.2
45738.1
45649.9
46863.6
51863.2
51577.8
53384.3
52118.2
47503.8
42306.4
40476.1
51729.6
64119.3
71220.8
62411
59295
54409.3
46870.6
46578.3
46803.2
46956.6
47035.9
47091.7
47125.8
47144.9
47155.7
46988.1
46978.8
46963.9
46936.5
46884.6
46800.4
46669
46451
46036.1
45366.3
45071.8
45726.8
50445.1
51980.1
55607.9
56246.1
51940.1
45373.5
44312.6
53841
62953.9
67706.9
61757.1
59124.7
53496.4
46620.1
46360.6
46615.5
46773.4
46858.4
46916.5
46952.4
46972
46983.8
46817.2
46807.8
46791.8
46762.7
46707.7
46617.5
46474
46232.8
45774.6
45020.9
44542.6
44677.4
49055.1
51513.3
56289.5
58560.3
54436.7
46918.4
45654
55144.8
62409.9
65299.9
61603.9
58807.6
52715.4
46423.8
46156.8
46432.1
46592.4
46681.6
46742.8
46780.5
46800.5
46813
46650
46639.8
46622.6
46591.5
46532.4
46436.6
46284.3
46023
45529.3
44707.3
44068.3
43743.2
47757.6
50280.9
56012.1
59984.5
56360.4
48187.1
45459.7
55903.4
62098.4
63601.5
61318.4
58230
52038.2
46260.1
45968.8
46253.8
46414.9
46506.8
46570.5
46609.7
46630.9
46644.2
46485
46474.7
46456.1
46422.4
46360.7
46260.2
46101.1
45824
45304.1
44429.6
43654.6
42936.1
46583.3
48637.9
55435.9
60752.6
57472.6
48797.7
45476.1
56321.6
61845.2
62372.1
60794.6
57511.5
51446.9
46118.2
45796.5
46082.3
46240.9
46334.9
46400.9
46441.5
46464.1
46477.4
46325.4
46314.6
46294.6
46258.7
46194.9
46091.5
45927.8
45640
45101
44189.9
43302.2
42253.9
45530.7
46990.6
54959.2
61138.9
57919.8
49063.4
45438.5
56444.7
61559.2
61411.4
60102.4
56742.8
50923.1
45991.3
45640.3
45921.2
46075.4
46169.9
46235.9
46278.1
46302.5
46315.7
46167.8
46156.7
46135.6
46098.1
46033.2
45928.3
45761.5
45469.4
44919.9
43986
43008
41692.8
44621.6
45573.6
54881.4
61498.7
58253.3
49331
45589.6
56478.3
61310.8
60654.3
59364.1
55996.1
50458.3
45877.3
45500.5
45769.5
45915.9
46009.7
46075.2
46117.3
46142.2
46155.8
46023
46011.8
45990
45951.6
45886.3
45781.8
45614.3
45320.6
44766.8
43818.7
42769.5
41236.4
43824.5
44419.7
54756.4
61422.6
58115.3
49269.7
45475.8
56125
60845.1
59869.8
58516.6
55228
50025.4
45776.8
45381.6
45636.6
45773.7
45865.7
45928.8
45971.1
45996.2
46009.4
45873.5
45862.5
45840.6
45802.1
45737.6
45634.9
45469.4
45179.1
44629.6
43680.5
42579.3
40898.2
43179.2
43928.7
55478.1
62107.7
58894.6
49791.5
46039.5
56382.4
60718.2
59359.1
57860.5
54584.9
49644
45682.7
45273.4
45509.1
45633
45720.4
45780.2
45820.7
45845.2
45857.8
9798.03
9806.96
6555.72
23208.6
16851.9
11154.5
23455
9644.12
3672.48
16871.1
1400.07
7837.95
12198.6
1777.68
1093.15
1366.83
2903.99
26168.9
5728.59
879.752
13256.4
1830.02
4108.57
22785.9
14097.9
1845.9
3611.31
4735.23
9510.45
3068.33
26751.1
4208.91
9766.41
3369.95
7388.86
19509.9
3077.41
8811.19
20561.5
28600.6
8406.78
3120.18
21972.5
46786.3
18733.5
16102.3
441.292
1087.45
11720.8
695.888
10100.1
10464.7
9555.59
21566.9
12871.3
1798.33
19921
430.567
2583.02
3832.67
1691.05
5257.69
15111.2
11994.4
1497.21
322.237
2195.04
1605.14
221.308
439.466
7071.41
7064.58
8587.67
8075.66
12026.9
28658.7
8506.49
481.6
15683.1
6124.12
448.049
14048
15888.1
3898.17
8604.04
5659.44
12050.2
16386.9
658.861
8121.81
13826.9
18116
16166.5
5390.31
3999.54
22052.2
10071.3
21664.9
22289.6
9905.14
11302.8
13159
5060.26
21460.4
13965.3
10652.9
21057
21153.7
12944.6
20003.8
34957.1
13912.6
719.355
7657.33
4307.56
2884.52
1307.8
5956.77
9399.9
11159.7
9505.82
2389.26
8267.92
1515.7
25299.6
29880.8
24095.5
20930.4
39414.7
29190.2
13159.2
14086.4
25726.5
12130.1
1272.59
4696.36
12229.5
8391.6
4974.84
1861.54
2982.43
305.909
13316.4
3875.78
13516
8014.17
27758.5
26925.8
31660.3
14723.2
16534.7
26598.2
8199.12
11912.8
3825.36
3624.98
12735.6
58583
25399.2
4291.01
16809.7
18230.5
3786.54
5792.36
4611.06
14499.7
40862.4
20016.7
16841.6
16663.3
27764
7886.28
2289.36
2421.3
11945.3
11360
28843.7
2770.77
3425.98
10934.5
3483.82
2778.23
7426.84
9173.47
1975.07
22861.4
8601.34
11562.1
4821.13
29227.3
13952.2
9811.46
7950.89
2832.41
2239.55
3644.34
4112.4
8810.01
22749.3
8795.88
8249.91
4192.66
4391.3
25967.9
1062.64
20829.8
3312.72
2450.68
22746.5
4226.9
3435.7
38621.7
13293.7
4625.35
7359.46
6142.56
4429.13
5872.11
13130.6
2239.24
1760.83
7924.37
6566.24
1018.49
3382.64
1793.12
3849.41
3111.2
2670.21
6178.53
15437.9
18312.5
3003.39
6401.53
7862.66
2682.85
10785.9
10326.9
5263.8
12503.8
8933.9
5860.91
10304
7050.99
4164.87
1494.18
851.896
22212.7
1245.18
1860.48
7451.96
8889.6
24214.2
7152.44
1552.46
7509.01
23438.1
9757.13
2666.23
623.762
13504.9
2184.74
5720.43
12182
1242.74
1089.07
1612.34
2863.18
1565.6
10355.8
105.46
12110.6
1475.26
9086.17
636.596
2506.48
12927.5
1651.8
3513.03
1480.16
5972.84
16279.7
14748.6
6488.93
5303.48
3185.98
4518.39
4498.83
2782.99
3203.49
1922.36
5716
4410.35
7426.66
3419.78
13694.9
4174.35
4269.79
7208.52
1112.97
23834.2
7862.95
4468.2
12923.7
5568.97
4071.39
3785.3
1742.42
7741.22
1738.85
1981.88
1978.44
3002.31
7798.67
1552.72
10964.8
2991.47
2155.64
6037.9
2562.15
21695.5
2231.65
5269.73
3658.9
11774.4
9616.79
11358.5
3325.46
2344.09
29297.7
10568.5
3604.16
9546.42
8632.15
8035.36
7261.39
5516.86
6189.41
6414.8
5457.32
22733.4
22865.1
9078.66
6035.95
5731.5
6349.12
6132.1
5489.15
21846.2
8924.26
9643.96
9961.77
14892.8
4864.22
3206.87
2604.25
4807.7
1281.9
6646.78
8534.27
7631.96
15389.7
13301
3624.94
2985.57
9376.83
7225.92
9602.41
22898.4
5308.91
12127.6
13712
15169.5
2406.98
7912.14
15089.7
8159.37
2264.08
770.793
2399.04
920.131
1147.42
2213.23
611.329
3490.2
12450
1286.34
6555.79
4230.23
5739.78
4623.46
474.626
2266.29
485.005
1949.62
577.451
6175.88
8423.62
6096.02
5783.46
593.738
999.116
5566.35
6025.25
2525.74
2049.93
2505.79
3130.65
7142.26
7028.79
2691.27
13697.1
8171.87
3679.43
3844.72
1062.36
3607.39
8218.88
7700.53
4412.87
3462.89
4393.65
22296.2
21631.9
21834.3
26177
20419.5
29967
10308.1
10722.7
13029.7
7080.63
9058.53
7935.07
9093.4
6084.52
5868.99
26689.6
10219.1
3427.76
12267.7
12431.8
12346.6
11355.2
5438.11
2853.27
14242
6117.17
5038.8
5077.38
4261.14
1433.64
648.267
1596.74
1527.44
6816.34
17275
16143.3
6592.12
7711.18
2450.83
5853.29
15509.3
14545.2
3481.41
3100.72
3656.04
2601.28
4399.18
4286.76
17799.2
16050.5
18227.7
1200.52
8446.12
10101.8
3860.99
3644.43
4105.87
7438.45
6296.97
3103.52
15302.6
12524.1
15680.9
2879.98
2678.6
9598.55
21646.1
24616.1
3682.41
4779.18
5394.28
1048.43
332.596
1444.61
3477.08
3303.91
1045.78
3200.74
98.7268
1392.43
496.242
481.257
4240.74
9184.58
2539.2
6340.68
6480.84
7633.95
2860.72
1150.49
15856.1
14510
17471.5
22053.5
21854.1
17893.1
15911.1
16220.2
9996.23
550.445
387.884
8620.72
10600.4
4566.19
7599.44
5710.75
3130.55
3007.66
442.952
703.938
15393.9
3722
20094.1
3103.95
3134.69
4186.95
1258.52
11840.5
11951.6
12038
1677.62
444.41
1523.19
1816.35
688.608
914.035
2605.27
1929.84
19874.2
9207.99
27086.4
2016.25
1484.75
1024.1
3449.6
2370.39
2756.72
9628.82
3176.12
4243.14
3585.61
3663.12
2850.96
1281.45
3606.06
8754.85
1845.66
1477.68
3326.78
3830.09
23144.6
24247.4
21103.1
3590.71
9408.94
2109.63
4510.97
2495.56
1510.9
1642.36
3688.18
716.429
1590.2
2648.27
3091.28
1729.29
6456.23
4426.46
132.621
9417.83
8356.35
9636.23
5245.9
5576.56
1990.79
21385.4
19312.6
17497.7
757.978
2678.11
239.223
1094.33
1735.74
1360.25
3905.19
4442.76
5682.25
3106.45
2108.63
1833.63
425.468
2526.23
407.697
2168.04
379.403
230.15
437.863
2840.66
3890.51
2329.05
2418.44
548.24
782.674
2511.36
2133.77
474.585
449.302
6243.85
5537.15
6349.28
7643.38
4700.81
5152.15
211.813
517.404
8801.93
8276.01
7796.54
7160.64
7864.74
8698
2078.99
2010.89
6413.87
6583.36
6332.58
8179.49
4091.63
17036.4
7768.68
17294.4
10731.7
8499.87
8728.95
273.556
3087.84
2940.97
9725.34
9565.73
9541.36
9621.64
9653.24
10739.1
5974.74
6513.11
5812.43
18460.9
17085.1
17675.5
1620.29
2105.21
1376.58
1349.72
8293.32
6208.24
5249.5
4190.25
554.606
3811.45
368.084
9904.06
16817.7
10160.8
8858.88
2814.41
4443.56
4742.46
10286.5
4577.82
4707.11
12682.5
20186.1
28249.7
22655.8
20138
26683.4
4026.26
12091.8
5472.27
3736.2
7524
8909.52
6196.46
12438.7
12486.3
12300.6
2986.46
2971.94
2957.15
2974.94
8323.5
12386.8
22059.8
8173.43
11189.4
7882.76
4995.29
7993.29
2976.88
179.032
219.008
3538.26
6335.35
14117.7
840.628
863.04
4343.68
752.46
843.414
4833.75
396.051
929.475
3432.23
3504.94
3315.45
3470.18
1624.25
1216.43
1471.34
1586.08
592.996
394.279
133.014
289.662
412.875
21693.9
23664.3
27201.2
5972.67
5624.74
3577.67
2211.05
5603.04
5400.38
3195.4
3263.94
3126.3
3172.96
2909.81
2420.84
3680.09
3574.53
11804.9
4529.7
4694.31
3984.66
4414.92
11595.3
2991.32
11806.3
11753.6
11484.8
11720.7
3063.94
3125.99
11763.3
11983.2
11219.6
11468.2
3009.32
2646.78
3216.08
7731.86
7942.09
3372.77
8812.16
8228.7
8243.65
9752.43
9495.5
18082.9
14278.8
8989.83
14483.9
15645.9
7296.86
9850.06
8448.8
8559.55
7631.68
7946.74
8998.83
2809.21
2533.59
4618.85
5079.53
2427.75
9490.71
8875.98
3777.53
3521.81
3263.11
4284.54
12360.3
13227.9
11044.3
11658.3
4614.21
1232.81
3076.85
6831.15
6230.82
3246.14
7181.66
2966.16
9116.85
9440.86
10912.4
7492.54
8356
8474.29
5812.05
15861.4
15503.2
13102
13956.6
5423.24
2610.77
2411.24
4659.6
5049.13
4099.41
6307.68
5722.68
5373.61
1539.46
1669.84
408.016
347.396
1060.78
2857.95
2820.68
3195.27
360.162
163.469
1648.93
351.123
604.91
502.804
499.171
2947.44
965.364
1012.39
877.292
945.229
2828.8
2706.17
990.701
2745.01
2704.37
813.121
589.222
10518.3
4294.22
4868.87
4235.25
4218.66
10336.9
3082.32
4046.13
1407.1
8895.2
7485.21
7705.38
5798.72
6723.47
8461.08
2940.37
3024.46
10171.3
5097.11
4396.72
652.164
3720.23
1739.47
1748.5
1669.74
6224.68
6200.79
5726.46
5976.49
1986.01
3049.47
3084.68
8003.22
7259.31
7023.81
7680.16
7513.93
8612.05
4091.96
6413.95
3169.03
618.345
5443.85
5424.4
4540.38
4540.72
4586.81
4585
4280.18
8261.3
9523.73
5684.5
6764.86
1426.81
3272.01
2103.98
3488.07
3438.98
2812.61
2746.98
2954.26
2867.73
12051.7
12104.8
12321.2
1671.46
447.548
1547.41
2266.12
1147.74
8859.08
8130.98
8330.27
9458.83
542.132
1011.22
4103.92
2133.61
492.524
4073.89
2092.36
2730.1
4018.53
1915.13
1754.5
844.584
5919.12
93.2293
272.849
3427.02
133.96
764.858
3435.9
602.761
3826.54
3391.15
1053.43
1211.9
789.394
872.489
2292.85
1181.01
2540.46
937.015
1472.06
1038.75
1644.19
248.414
4823.21
156.606
158.34
4631.83
1595.81
1469.91
8580.9
2672.7
2101.37
4839.02
4722.49
3180.59
4046.98
5240.37
5420.27
3146.42
6068.3
4405.4
2284.38
11290.1
10835.8
3932.52
759.519
4385.46
6272.49
636.081
764.669
758.912
3252.83
2737.63
3121.3
10266.8
2558.12
3732.08
2739.02
7872.77
9453.1
1012.34
1598.31
2714.08
8456.67
8003.16
1801.16
1289.51
4502.77
336.918
4558.29
2990.04
11185.6
1424.53
3517.81
4022.91
4515.2
4954.38
12104
11336.1
11711.4
12065.2
11397.5
4296.46
3917.9
2117.35
10161.1
10976.9
2674.55
2630.84
4150.08
2751.18
7583.71
7609.57
8224.47
3148.37
2942.56
7309.2
2354.58
2495.11
5642.51
367.77
399.313
371.257
365.839
5898.15
428.031
348.992
5223.67
6006.62
401.594
394.81
378.484
400.432
5993.72
6423.47
379.286
374.499
391.406
380.672
6268.06
10315.7
9191.38
9096.16
8799.71
8940.59
10275.5
5153.45
863.28
5302.09
4417.15
1836.69
4868.79
7480.99
7027.4
1962.02
3203.39
571.041
741.56
3053.7
139.701
2672.44
2465.54
2784.19
3846.98
2819.9
1992.94
6047.43
6183.29
602.149
2578.72
632.464
1327.02
2016.88
2924.25
3349.34
1170.54
4146.34
3896.46
2998.69
1807.22
1419.58
3140.93
4942.93
1176.59
2348.68
2168.21
434.327
2468.48
452.211
337.4
338.901
2057.58
2220.63
2158.33
509.49
574.69
2425.02
2420.88
2871.79
2808.96
874.793
2375.37
775.616
852.876
651.416
748.531
2216.54
438.968
391.92
2957.52
990.949
532.06
1017.89
1035.47
3291.59
527.9
500.158
2410.14
2640
5953.98
5390.83
7234.65
6589.37
3333.63
3384.17
3279.67
3342.51
331.234
1008.57
3955.97
2015.13
1034.05
1166.4
2221.05
4191.94
3364.84
1230.43
1299.61
1531.15
3558.46
505.556
3216.1
3121.77
2204.38
2020.56
2613.98
2280.61
1846.9
1798.43
1977.21
1874.04
10138.2
14723.3
13518.6
7723.48
3173.84
9340.92
10648.1
10602.8
13062.6
12793.4
12055.2
2881.89
2780.39
3303.56
13880.4
5157.07
12889.3
8090.38
7999.05
8323.51
2316.6
2178.27
2467.7
2943.87
5081.89
4844.01
2324.69
2498.47
2265.98
4433.12
5647.2
5223.67
7774.78
7666.67
8036.64
21913.5
22691.2
23014.2
37226.6
34621.5
37989.6
34828.7
32626.9
28128.1
4265.47
11894.8
14935.5
32215.3
30072.2
32914.7
1392.31
1689.96
1604.06
2572.55
2775.4
2557.29
27943.6
26823.9
26569.4
2960.25
2972.6
2407.29
2109.73
1640.73
1036.83
137.028
334.333
2327.79
2412.59
2357.68
2773.22
2407.38
726.471
383.878
29388.7
30499.2
25657.4
10145.6
9980.38
9506.67
11355.8
10003
9287.78
10583.1
10637.7
9764.01
3777.06
3213.14
3037.75
1285.73
7174.11
8132.11
8232.52
1712.3
1062.95
958.115
648.468
567.198
966.591
1532.36
366.861
744.572
11584.8
11685.8
13151.9
1868.53
1525.15
1564.31
1323.53
785.26
1607.75
1656.56
1896.17
4638.1
1189.66
4529.16
4255.74
4178.35
4813.26
9548.24
3326.67
8600.58
3996.04
7734.16
7444.35
6877.64
2599.49
2429.03
2603.05
19777.7
21605.2
20286.7
506.766
996.173
404.482
870.854
12565.5
13977.1
4683.37
830.54
1369.42
811.437
10479.1
8383.95
8156.33
17977.4
17124.8
22170.5
1984.82
2021.02
1883.13
482.841
343.651
1588.63
1778.99
1855.65
13884
14567.6
15984
11741.5
13073.7
12701.4
243.348
2101.19
295.169
663.824
801.518
411.075
501.695
623.273
473.135
7807.03
9575.38
10224.5
500.587
419.229
2654.36
2658.69
2364.55
723.443
8143.41
7937.05
7862.97
17720.9
18375.1
18856.2
17113.5
17921.6
17026.3
4531.28
5164.11
5722.73
4096.54
4216.96
4130.19
13999.4
9410.7
9357.31
11138.2
9706.6
12609.4
9303.41
9349.49
11074.5
934.004
4378.13
4274.03
4145.09
2334.58
2318.83
2875.11
1001.94
8730.69
9508.19
10179.8
8208.51
1896.4
11244.4
10397.5
9588.79
8994.18
2382.8
2812.47
10004.5
2627.15
9889.2
10538.6
8922.82
2351.96
2207.54
2936.82
2982.87
29718.3
23447.3
24093.5
12801.9
12584.3
13369.3
12363.3
12776.5
12132.6
1649.47
5431.32
6575.82
5808.75
7461.8
8110.73
8328.35
6573.71
7660.07
5988.52
2484.01
3018
2329.37
2275.23
171.213
205.081
257.557
4079.1
2901.93
2522.68
12878.5
5079.58
14006.4
15432.5
13407.2
13109.2
14088.8
13755.3
16055.8
602.877
590.982
497.162
479.889
8301.42
7982.22
7925.13
3583.93
4432.95
4578.2
298.421
19137.1
18589.1
15025.3
5010.33
5370.11
4180.47
5460.16
5672.58
2063.42
17853.6
17913.5
19950.8
16938.1
14717
14419
15188.2
14934.8
16872.8
350.886
397.541
432.026
431.486
7967.67
7544.74
7442.87
2583.43
2380.56
2831.17
4394.94
4166.99
4875.43
4720.88
3243.08
3312.69
4927.35
5072.01
4205.79
4243.03
2644.96
3218.45
2826.02
1203.31
8867.44
9456.26
9030.69
5984.9
6734.99
6219.66
8540.83
8519.47
8741.92
8157.97
8280.08
8326.95
4336.69
5425.64
5569.81
963.18
446.393
409.437
3282.76
3230.02
3269.51
808.03
3181.1
2569
5425.71
5604.81
4872.71
6967.23
6787.08
7158.37
6018.18
6403.14
6557.33
2191.32
1032.62
1325.03
1348.1
3340.58
3449.86
1193.58
1602.8
6408.6
6771.62
6660.02
744.745
777.097
661.655
601.715
5513.39
6217.54
6012.38
9616.74
4221.37
8491.67
3939.26
3679.95
3986.33
1612.94
1449.63
1480.1
1771.54
1729.48
2258.15
2457.93
2050.53
6781.1
7168.42
7018.51
986.021
1263.63
1627.42
1933.38
7205.06
5915.61
4349.41
2864.5
2898.3
2950.73
2980.11
9795.27
10721.5
10739.6
1847.24
2223.72
3470.01
4179.56
3563.61
4322.02
4139.42
1700.85
5585.49
6999.27
6278.97
520.771
202.758
639.62
613.991
1506.88
1196.04
1476.47
1278.46
1502.48
1336.69
1609.85
2178.39
2058.52
2755.32
1523.42
9553.83
10409.5
11100.9
2911.51
1881.12
2920.42
3225.91
7445.84
6872.96
5669.63
7272.32
7661.09
8657.66
541.891
553.217
1551.24
1191.06
575.008
2625.34
2288.37
2419.71
315.903
252.864
177.396
146.105
12970.7
11482.5
11053.3
1228.61
1302.3
1780.21
2211.58
1878.25
3021.36
1248.41
943.628
1117.73
2090.93
2216.71
621.777
627.681
1726.03
4080.31
3004.57
980.292
1541.53
8717.37
9989.19
9311.64
5166.85
4934.67
5465.68
4605.62
4315.3
4666.74
1458.43
4697.69
2027.92
2060.35
1630.01
7762.14
2997.09
7607.23
1613
1535.43
1692.43
1335.14
1162.59
2250.62
7360.64
7120.69
7647.92
571.241
454.141
5436.38
2421.53
2960
3833.29
3796.2
1643.21
1683.1
2260.58
1395.72
7374.79
7319.19
3101.85
2825.05
2328.68
1774.65
10488.4
9144.09
10558.9
10568.9
9767.07
8865.44
10840.5
10464
11123.2
3663.52
4611.32
4341.96
3732.14
3858
2766.13
907.299
556.078
11453.6
10917.5
9957.89
12036.1
11524.8
11493.3
563.167
574.488
1498.32
1161.3
6515.14
7959.33
9539.94
5052.58
622.079
4125.75
9687.21
10672.1
10316.8
6883.15
4419.72
546.517
8456.75
7285.89
8759.97
4900.24
2098.11
4308.82
4840.08
5242.29
2615.11
7997.12
7182.08
7778.04
6370.01
7171.59
610.108
669.801
2574.56
2634.96
7106.45
6947.25
8083.77
2065.35
2616.9
2840.41
572.715
835.714
437.887
478.357
1218.49
1166.37
1025.77
662.976
1427.77
1052.96
1099.89
1056.71
6159.44
5770.51
5930.71
5360.53
5291.07
5646.81
4510.56
4931.3
4987.05
443.751
2308.68
484.941
937.47
890.337
556.128
588.088
958.891
963.885
1326.76
1296.37
973.09
658.601
704.124
2186.37
2148.47
3469.05
3505.29
7973.71
7961.48
8134.92
466.045
465.371
325.085
462.526
1306.77
1316.04
1131.57
8151.32
7989.98
8093.72
7493.4
7790.17
7971.54
4658.2
4835.28
4310.4
3060.14
4273.36
4354.2
4502.9
17522.2
15968.2
19142.9
3563.1
7269.14
1505.73
2418.52
5538.16
2293.35
10427.6
11173.8
10033.3
5392.6
6688.13
2744.03
4103.47
2024.84
2144.01
1836.64
1928.39
2983.65
2586.04
2464.96
6752.77
6596.83
6525.26
5234.65
6168.08
6561.21
1736.69
1680.05
1596.92
1022.01
1173.14
924.874
1580.72
1753.22
1815.08
1689.85
1711.55
1562.41
2252.6
3050.52
3173.12
3377.52
3257.67
3706.9
2511.96
1669.06
1406.73
2445.63
1091.53
4282.06
3755.5
4164.8
2984.74
3768.03
1516.21
2421.29
1936.83
3855.43
2641.47
2690.72
2489.44
2567.93
3765.36
470.862
2169.42
2048.2
2918.39
3043.96
3174.14
2813.98
1857.62
1896.1
1780.6
1819.4
2747.44
496.49
458.637
54.7573
1161.24
1111.66
1120.25
3193.32
301.732
957.426
403.071
1635.8
1513.49
1200.9
492.144
487.192
410.041
2584.1
3004.31
697.928
720.738
428.217
405.058
4929.19
3379.48
10030.2
2425.29
2668.31
863.103
4775.51
4929.56
5126.85
3109.01
2399.14
2401.37
2387.16
2394.71
3061.74
631.793
661.926
5792.78
6019.42
4306.46
3118.38
2398.59
2390.78
2402.96
2402.42
3130.61
3497.55
3344.37
3987.25
2311.44
2300.24
2215.03
2318.87
1227.33
1134.14
1138.99
1692.35
412.925
439.901
368.39
387.325
572.879
365.222
324.407
791.205
439
1533.5
1146.66
820.475
1526.51
209.851
553.622
460.427
175.081
432.974
318.254
915.541
677.331
788.973
1442.76
1484.4
1902.23
2011.45
1703.35
1677.81
1469.93
1550.13
1610.17
1164.8
1379.08
1369.51
2715.71
3490.39
3138.82
3460.9
3525.09
2788.63
1551.8
1556.88
1378.85
1451.59
2387.67
1793.99
1169.21
1211.88
1224.07
1121.94
1426.43
2154.68
2596.03
2436.63
1913.75
942.974
3494.58
2408.01
2217.42
2676.23
2571.87
3716.87
4350.09
4896.83
3470.69
2950.54
2598.8
3958.67
2946.27
1216.25
2099.39
2142.73
426.967
1491.81
1294.67
2506.5
1972.07
1366.05
2635.1
2402.23
3257.38
708.163
641.349
554.967
1349.55
2730.73
1669.36
1773.81
2007.16
1821.38
2935.32
2512.65
2223.1
1185.06
78.8255
89.8277
1968.19
2155.09
2020.6
561.342
500.748
678.521
329.797
383.841
169.752
1643.47
1702.32
790.673
1277.91
904.523
780.36
1532.89
1649
1476.45
2912.8
3345.15
3019.61
2507.95
2938.29
2040.36
1441.34
1476.29
1316.75
1393.87
1956.34
504.089
2425.36
333.201
415.277
744.77
744.255
575.612
702.536
370.757
691.927
946.816
108.622
510.577
883.563
924.263
1030.96
848.15
645.086
467.007
458.663
334.002
452.514
421.011
498.896
1780.7
3742.84
1129.34
9556.94
9135.82
7964.86
531.049
3046.86
2009.11
2045.53
1933.87
1972.41
2998.04
1713.47
7536.03
3109.26
2796.23
2546.04
3021.55
2863.94
1752.17
517.383
499.761
589.159
453.902
1880.91
1144.6
605.758
981.675
434.653
449.267
1163.39
4011.98
4261.69
4356.96
2526.67
2296.16
2305.53
2489.85
932.093
1161.46
1831.97
1332
3286.73
2801.57
3424.69
544.524
3537.41
4441.18
2505.34
2818.03
9313.77
8954.93
7423.78
10585
10069.5
10257
547.413
3065.45
3059.97
507.808
10236.7
1765.31
6235.97
1729.03
1567.93
3491.95
2762
2440.96
4049.14
3603.17
4089.13
3113.02
2945.71
4711.65
4368.37
4403.43
4608.9
4213.44
4157.23
4365.69
4288.51
4664.66
3061.97
3091.45
4493.77
3001.13
12279.4
4856.8
2980.58
8615.94
7491.53
6305.28
2988.08
1046.96
1058.17
1018.25
1034.28
2985.55
2953
1088.49
1111.64
1067.26
1076.49
2965.12
9926.12
10097.7
8270.6
7101.95
8634.26
9363.87
4213.52
2396.56
2384.44
3018.53
1852.51
1810.79
1772.69
1822.62
178.246
422.447
4697.93
4849.66
4261.13
6176.55
5788.5
6088.55
582.764
669.416
514.952
3604.76
3287.48
4158.95
1101.7
721.27
887.2
1026.42
2428.22
2893.16
1489.72
3444.66
832.134
923.465
576.511
550.275
3470.56
3031.1
2967.86
3148.38
3069.81
3465.05
3396.58
2816.72
2696.3
2958.28
2829.59
3385.3
530.02
523.621
1275.45
1243.91
1352.34
1472.04
1595.27
1154.99
1153.99
1224.11
1479.49
2073.01
2224.07
1860.17
1960.12
1541.15
789.006
1107.81
941.462
289.569
237.692
410.241
424.437
2387.65
2454.49
2419.5
375.281
412.56
3219.89
2722.76
2728.48
2701.93
2709.51
3237.88
3131.25
2732.99
2751.2
2732.24
2735.48
3149.66
395.068
418.546
2737.61
2389.58
3700.39
3652.91
4628.55
5090.3
5013.45
5135.93
5149.89
4696.02
4155.29
4695.24
4554.55
4913.23
4815.47
4292.14
4552.9
4519.22
2917.98
3134.52
4620.22
4580.1
4727.68
4812.01
3216.68
2836.54
4452.96
4613.07
2738.1
2860.37
3583.5
3761.33
3674.44
1510.22
2802.59
2829.59
6799.55
7235.46
7642.64
844.242
865.277
802.877
835.502
813.078
743.581
861.494
853.549
1079.65
1133.66
934.96
901.46
1163.86
1130.53
1321.22
1341.28
3005.92
1496.92
1003.52
2267.87
764.266
4065.4
4070.76
4382.58
3414.93
2358.33
2423.85
2247.56
2301.71
3328.43
5142.77
5198.34
3989.81
4629
4999.99
5120.64
777.648
3360.48
3245.17
3193.25
3300.67
3212.17
3077.24
2787.33
3407.85
3387.96
6672.1
6655.65
5966.8
5131.53
5908.77
6114.23
2542.92
1705.11
1742.74
1632.35
1668.57
2476.65
2010.32
399.977
612.227
596.353
633.963
611.039
354.183
1159.65
1264.93
1051.68
3229.99
312.872
235.126
442.676
561.612
500.154
723.991
653.204
539.69
500.699
501.487
984.761
1169.68
1142.68
1209.24
1187.98
1000.97
901.06
1066.06
1036.73
1119.33
1092.08
924.042
769.841
321.192
597.234
633.071
816.081
764.158
4437.51
4895.62
4768.18
5297.43
5119
4615.07
4181.32
4659.37
4700.27
4686.27
4648.36
4172.61
3234.03
3025.8
2726.23
4332.24
3870.49
3720.38
1192.85
1561.44
2947.4
2409.14
2387.23
2582.28
2472.38
2971.31
4896.8
5257.27
5316.27
4873.79
5065.66
4632.91
2458.4
1954.29
518.792
2766.41
3783.08
3401.68
2966.28
1694.76
1693.04
2282.3
1980.21
1543.53
2123.18
2581.28
2481.4
3046.43
2370.89
2414.15
2379.05
2364.47
3063.77
3322.12
2548.72
2505.92
2616.2
2904.1
3113.35
1129.39
1216.59
858.097
2871.49
2856.36
4525.9
4072.29
4095.6
4111.53
4074.74
4524.6
4641.08
4241.9
4208.73
4141.04
4198.27
4614.71
2934.16
2904.15
932.604
928.393
2024.96
1725.63
4159.86
3097.14
3366.37
3909.18
4359.25
3869.3
3591.76
1480.71
632.429
551.274
3002.24
2912.46
3073.3
2068.09
2661.73
2802.41
3492.48
3189.67
3167.65
3163.34
3182.43
3464.52
649.784
615.312
2784.06
923.889
941.026
920.617
915.117
2725.69
2928.16
985.29
1001.67
953.39
970.56
2899.12
499.894
488.974
462.817
483.511
1639.88
1041.44
1089.12
843.5
774.554
538.183
477.969
918.023
1544.3
1531.73
1669.82
1015.66
1321.47
2510.6
1856.29
1573.05
1360
3768.3
3662.46
3434.84
3654.37
816.213
722.629
573.729
889.022
848.529
967.155
542.708
524.346
464.388
744.914
771.924
214.914
313.117
3971.55
2715.71
2813.55
567.529
2733.38
3681.63
3650.31
2763.58
2476.68
2768.25
2769.41
3937.74
163.143
193.643