/*--------------------------------*- C++ -*----------------------------------*\
  =========                 |
  \\      /  F ield         | OpenFOAM: The Open Source CFD Toolbox
   \\    /   O peration     | Website:  https://openfoam.org
    \\  /    A nd           | Version:  dev
     \\/     M anipulation  |
\*---------------------------------------------------------------------------*/
FoamFile
{
    format      ascii;
    class       volScalarField;
    location    "0";
    object      yPlus;
}
// * * * * * * * * * * * * * * * * * * * * * * * * * * * * * * * * * * * * * //

dimensions      [0 0 0 0 0 0 0];

internalField   uniform 0;

boundaryField
{
    inlet
    {
        type            calculated;
        value           uniform 0;
    }
    outlet
    {
        type            calculated;
        value           uniform 0;
    }
    ground
    {
        type            calculated;
        value           nonuniform List<scalar> 
5358
(
41887.1
41887.2
41887.3
41887.4
41887.5
41887.6
41887.8
41887.9
41888
41888.2
41888.3
41888.3
41888.4
41888.5
41888.5
41888.5
41888.4
41888.3
41888.1
41888
41888
41887.8
41887.5
41887.5
41887.3
41887.2
41886.5
41886.5
41886.5
41886.3
41886.2
41886.1
41886.1
41886
41887.2
41887.2
41887.3
41887.4
41887.6
41887.7
41887.6
41888.2
41888.1
41888.3
41888.4
41888.4
41888.3
41888.4
41888.6
41888.5
41888.4
41888.3
41888.5
41888.4
41888.1
41887.9
41887.8
41887.3
41887.3
41887.1
41886.7
41886.8
41886.5
41886.4
41886.2
41886.2
41886.1
41886
41887.1
41887.3
41887.4
41887.5
41887.6
41887.6
41887.9
41888.3
41888.3
41888.2
41888.3
41888.5
41888.6
41888.7
41888.7
41888.6
41888.7
41888.7
41888.5
41888.2
41888.1
41888
41887.9
41887.4
41887.4
41887.7
41886.9
41886.7
41886.4
41886.4
41886.3
41886.2
41886.1
41886
41887.3
41887.4
41887.5
41887.6
41887.8
41887.7
41888.3
41888.2
41888.4
41888.7
41888.6
41888.5
41888.8
41888.9
41888.6
41888.6
41888.5
41888.5
41888.6
41888.5
41888.4
41888.2
41887.8
41887.8
41887.5
41887.4
41887
41887
41886
41886.5
41886.1
41886.2
41886.1
41886
41887.6
41887.5
41887.6
41887.7
41887.8
41887.7
41888.4
41888.2
41888.8
41888.7
41888.9
41888.7
41888.7
41888.9
41889
41888.9
41888.7
41888.6
41888.6
41888.7
41888.5
41888.2
41887.8
41887.7
41887.8
41887.3
41886.9
41887.1
41886.6
41886.8
41886.1
41886.2
41886.1
41886.1
41887.5
41887.6
41887.7
41887.9
41888.2
41888.2
41888.4
41888.4
41888.8
41888.7
41888.9
41888.6
41888.8
41888.7
41888.7
41888.6
41888.7
41888.9
41888.9
41888.5
41888.6
41888.5
41888.1
41888.1
41887.8
41887.5
41887
41886.7
41886.7
41886.5
41886.4
41885.9
41886.1
41886.1
41887.6
41887.4
41887.9
41888
41888.2
41888.2
41888.4
41888.7
41888.9
41889.2
41889.4
41889.1
41889.2
41888.7
41888.5
41888.5
41888.5
41888.5
41888.6
41888.8
41888.7
41888.5
41888.5
41887.9
41888.2
41887.7
41886.9
41886.7
41886.8
41886.2
41886.7
41886.1
41886.3
41885.7
41887.5
41887.9
41888.1
41888.3
41888.1
41888.4
41888.8
41889
41889.2
41889.1
41888.8
41889
41888.7
41888.5
41888.4
41888.2
41888.2
41888.3
41888.4
41888.5
41888.8
41888.7
41888.4
41888.1
41887.8
41887.6
41887.3
41886.7
41887
41886.4
41886.3
41886.2
41886.3
41886
41887.7
41888.1
41887.7
41888.5
41888.3
41888.6
41889.2
41889
41889.3
41889.4
41889.1
41889
41888.6
41888.1
41887.5
41887.2
41887.2
41887.3
41887.9
41888.4
41888.6
41888.6
41888.5
41888.2
41887.6
41887.7
41887.2
41886.7
41886.7
41886.7
41886.1
41886.2
41886.1
41886
41888
41887.8
41888.2
41888.2
41888.7
41888.5
41889.3
41889.2
41889.3
41889.3
41889.6
41888.8
41888.3
41887.2
41886
41885.2
41885.2
41885
41886.8
41887.9
41888.3
41888.4
41888.5
41887.6
41887.7
41887.8
41887
41886.9
41886.5
41886.7
41886.1
41886.2
41886.1
41886
41888
41887.7
41888.5
41888.3
41888.6
41888.8
41889.1
41889.5
41889.1
41889.4
41889.9
41888.9
41887.9
41885.6
41883.2
41880.6
41880
41878.7
41884.4
41887.1
41887.8
41887.9
41887.8
41887.5
41887.3
41887.4
41887.2
41886.6
41886.6
41886.2
41886.3
41886.1
41886.1
41886
41888.1
41887.8
41888.4
41888.6
41888.4
41888.9
41889
41889.5
41889.5
41890
41890.1
41889.5
20943.8
20940
20935.2
20927.2
20919.5
20924.9
20939.5
20942.7
20943.5
20943.8
20943.9
20943.8
20943.8
20943.5
41886.9
41886.6
41886.7
41886.2
41886.2
41885.9
41886
41885.9
41887.9
41888
41888.4
41888.6
41888.4
41888.7
41889.1
41889.3
41889.7
41890.6
41891.6
41892
20943
20926.7
10432.2
10418.8
5134.43
10424.9
20933.4
20938
20941.7
20942.7
20943
20943.2
20943.2
20943
41886.6
41886.4
41886.5
41886.2
41885.9
41885.8
41885.9
41885.9
41887.9
41888.2
41888.2
41888.6
41888.4
41888.5
41889.1
41889.3
41889.7
41891.2
41894.2
41898.5
20943.6
20907.1
4878.87
4958.91
5225.05
20927.5
20937.7
20940.5
20942.2
20942.6
20943
20942.9
41885.9
41886.1
41886.3
41885.8
41886
41885.7
41885.8
41885.8
41888.1
41887.9
41888.1
41888.3
41888.3
41888.5
41889.1
41889.1
41889.9
41891.5
41896.2
41906.7
20949.7
10444.5
10392.1
4951.34
4936.11
2626.18
5084.57
5208.78
20939.1
20941.1
20941.7
20942.4
20942.1
41885.2
41885.7
41885.5
41885.8
41885.9
41885.8
41885.6
41885.8
41888
41887.9
41888
41888
41888.3
41888.7
41888.6
41888.7
41889.4
41891.3
41896.5
41908.8
20950.3
5263.16
3127.8
3892.44
4745.9
4346.28
5090.7
3574.88
5207.46
20931
20938.2
20940.4
20941.4
20941.8
41884.3
41885.1
41885.3
41885.8
41885.6
41885.8
41885.6
41885.7
41887.7
41888
41887.9
41887.9
41888.1
41888.3
41888.2
41888.5
41889.1
41891
41895.5
41907.3
20950.6
5263.12
10194.1
10453.9
10133.4
20883.1
20931.5
20938.4
20940.3
20941.1
41884
41884.6
41884.9
41885.3
41885.8
41885.2
41885.5
41885.5
41887.6
41887.9
41887.8
41888.1
41888.2
41888.2
41888.3
41888.3
41888.6
41890
41892.5
41897.9
20943.7
10434.4
10342.6
10427.1
4357.85
20906.4
20932.5
20937
20939.5
20940.2
41883.4
41884.3
41884.9
41885
41885.4
41885.6
41885.5
41885.6
41887.9
41887.8
41887.9
41888
41888
41887.8
41888.1
41888.1
41888.1
41888.9
41889.1
41888.2
20934.3
20840.8
1424.79
4163.06
20942.8
20947.5
10416.2
20935.5
20936
20937.5
20939
20940.4
41883.1
41884
41884.3
41885.2
41885.3
41885.2
41885.3
41885.7
41887.4
41887.7
41887.8
41887.4
41887.9
41887.8
41888.1
41888
41887.7
41887.9
41887.6
41885.8
20939.1
20918
10416.5
4897.41
2377.6
2981.14
2597
20918.2
20935.7
20938
20939.6
20940.4
41882.9
41884.2
41884.3
41885.1
41885.3
41885
41885.5
41885.5
41887.4
41887.7
41887.6
41887.3
41887.9
41887.7
41887.4
41887.8
41887.5
41887.7
41887
41885.5
20942.6
20938.4
20932.2
4857.11
2713.27
10459.1
20928.8
20901.5
20928
20937.1
20939.2
20940.1
20940.6
41883.3
41884
41884.9
41885
41885.6
41885.4
41885.3
41885.5
41887.5
41887.6
41887.8
41887.6
41887.7
41888
41887.5
41887.7
41887.3
41887.2
41886.8
41886.1
20943.5
20941.3
20937.8
20924.2
20884.1
20930.4
20940.2
20939.1
20936.4
20937.9
20939.7
20940.3
20940.9
20941
41884
41884
41885
41885
41885.2
41885.4
41885.3
41885.5
41887.3
41887.5
41887.4
41887.3
41887.4
41887.5
41887.5
41888
41888
41887.6
41887
41886.8
41886.2
41885.1
41883.4
41880.6
41877.8
41881.4
41883.5
41882.9
41882.1
41881.8
41882.2
41882.5
41883.5
41883.5
41884.6
41884.9
41884.8
41885.4
41885.6
41885
41885.2
41885.4
41887.3
41887.4
41887.5
41887.4
41887.6
41887.6
41887.8
41887.7
41887.6
41887.4
41886.9
41887.2
41886.6
41886.1
41885.3
41884.3
41883.7
41884.3
41884.5
41884.7
41884.4
41884
41884.2
41884.1
41884.7
41884.6
41885.2
41885.7
41885.5
41885.8
41885.7
41885.5
41885.9
41885.6
41887.4
41887.3
41887.5
41887.4
41887.6
41887.8
41887.9
41887.8
41888
41887.8
41887.3
41887.2
41887.1
41886.8
41886.5
41886.1
41885.5
41885.6
41886.1
41886.1
41885.8
41885.6
41885.3
41885.4
41885.2
41885.6
41885.4
41885.4
41885.4
41885.6
41885.4
41885.6
41885.6
41885.7
41887.1
41887.3
41887.2
41887.1
41887.7
41887.8
41887.4
41888.2
41888.1
41888.1
41887.8
41887.8
41887.6
41887.5
41887.1
41887.1
41887.1
41887
41886.7
41886.7
41886.7
41886.5
41886.4
41886.3
41885.8
41886.3
41885.7
41885.8
41885.4
41885.6
41885.7
41885.9
41885.5
41885.6
41887.3
41887.2
41887.3
41887.4
41887.4
41887.5
41887.5
41888.3
41887.9
41888.1
41887.9
41888.2
41888
41887.9
41887.9
41887.9
41887.6
41887.7
41887.8
41887.5
41887.2
41887.1
41886.8
41886.4
41886.4
41886.3
41886.1
41886.2
41886.1
41885.8
41885.9
41885.8
41885.3
41885.7
41887
41887.2
41887.2
41887.3
41887.5
41887.4
41887.6
41888
41888.1
41888
41888.1
41888.2
41888.3
41888.3
41888.2
41888.2
41888.1
41888
41887.8
41887.6
41887.6
41887.4
41887
41886.9
41886.7
41886.6
41886.7
41886.2
41885.9
41885.6
41886.2
41885.9
41885.4
41885.6
41887.1
41887.1
41887.2
41887.3
41887.4
41887.5
41888.1
41887.9
41888.1
41888.3
41888.5
41888.4
41888.4
41888.6
41888.6
41888.4
41888.4
41888.3
41888.3
41888.2
41887.8
41887.6
41887.4
41886.9
41886.9
41886.5
41886.5
41886.3
41886.3
41885.8
41885.8
41885.8
41885.9
41885.8
41887
41887.1
41887.1
41887.3
41887.4
41887.4
41887.6
41887.9
41888.1
41888.1
41888.2
41888.5
41888.5
41888.5
41888.5
41888.6
41888.6
41888.5
41888.3
41888.2
41888
41887.7
41887.6
41886.9
41886.8
41886.9
41887.1
41886.1
41886.2
41886
41886.1
41885.9
41885.8
41885.9
41887
41887
41887.1
41887.2
41887.3
41887.5
41887.7
41887.9
41888
41888.2
41888.4
41888.5
41888.6
41888.7
41888.7
41888.7
41888.6
41888.5
41888.4
41888.3
41888
41887.8
41887.5
41887.5
41887
41886.8
41886.6
41886.2
41886.2
41886.3
41885.8
41885.9
41885.8
41885.8
41886.9
41887
41887.1
41887.2
41887.3
41887.5
41887.7
41887.9
41888
41888.2
41888.4
41888.6
41888.7
41888.7
41888.7
41888.7
41888.7
41888.5
41888.4
41888.3
41888.1
41887.8
41887.5
41887.9
41887
41886.8
41886.6
41886.2
41886.2
41886.3
41886
41885.7
41885.9
41885.8
10420
4932.36
5160.63
10302.4
10227
5054.87
10178.3
5226.06
2618.72
10437.4
2248.73
5264.69
4945.57
1964.96
1473.38
2520.48
3690.32
10430.2
3656.42
1775.98
5128.15
2607
2766.26
10449.5
10453.1
2603.27
4583.23
4521.14
4749.7
5233.72
10451.8
5215.03
5202.49
5281.38
5211.88
10340
5283.78
4109.6
10424.6
10456.4
4286.6
1707.48
10194.7
20781.6
10321.5
10408.5
1519.09
1079.19
10450.2
1717.99
10457
10457
4624.82
10376
10442.8
2130.86
10398.3
1273.86
4881.39
4943.84
2130.15
5098.26
10465.4
10440.4
2467.4
733.195
4956.24
2149.82
1387.26
815.09
10453.4
10427.9
10387.3
10454.5
10415.7
20883.9
10359.5
971.999
20847.5
10447.4
1404.88
20858.8
20755
5229.5
10464.9
10457.1
10403.2
10457.7
1160.73
5263.3
9714.06
10391.2
10463.2
4791.35
5223.3
20923.5
10391.9
20911.5
20912.1
10392
10364.4
10369.3
5179
20925.7
10451.3
10339
20934.6
20923.2
10455.3
10257
20870.8
10453.5
1084.76
4491.8
2538.91
1767.17
2341.69
5101.33
5205.31
4942.25
5029.63
1276.84
5167.69
1281.2
20933.9
10417.4
10428.2
20938.1
20929.5
10444.6
10464.3
10486.6
20951.4
4991.36
1752.78
5024.57
4925.47
5234.65
4605.91
1987.18
2609.37
1080.29
4956.39
1935.79
5154.38
5213.48
20940.4
20939.3
20938.7
10479.9
10478.9
20949.4
5263.43
10335.3
5113.95
3933.76
10208.6
20916.1
10303.1
5094.56
10415.5
10337.7
4851.66
5199.89
5075.45
10455.6
20888.9
10387.1
10479.7
10472.9
20950.9
5271.44
2493.31
2535.22
5158.9
5176.32
10400.5
2341.09
2712.5
5119.38
2678.99
2681.84
4326.09
4317.59
1376.27
9623.06
4264.48
10353.8
3617.11
20862
10384.1
5390.27
4259.19
5150.32
5200.1
4738.47
5240.73
5061.34
10182.4
5031.08
5218.49
3292.66
4999.79
20884.3
1240.8
20935.9
5229.99
4750.2
20945.2
5081.52
5136.43
20900.2
10365.8
5296.18
5230.28
5227.69
10411.9
10414.9
20939
4024.24
5227.07
10370.7
10304.4
1518.65
4009.99
4978.39
4402.57
5177.44
5183.87
10391.7
20925.6
20934.1
5172.93
10394.9
10450.5
5184.04
5047.58
5009.88
5172.83
10369.8
5095.47
5108.92
5022.82
4927.15
2485.29
2518.6
1109.63
10259.9
1495.63
2509.03
4717
5157.46
10254.7
4807.07
2360.89
4291.61
10133.7
5136.88
1392.55
659.324
10442.4
2144.83
5265.94
4932.75
1643.3
1354.35
2584.1
2583.05
2560.98
4787.52
403.442
10049.2
1595.85
4506.76
1633.91
5098.26
4969.66
2532.48
1859.27
2435.27
5171.95
10463
10453.5
5274.53
5069.09
5046.91
5033.09
5064.73
5174.48
5184.34
2280.45
4708.34
4416.44
5039.49
5177.59
10459.5
5182.13
2983.3
5274.13
2465.47
10440.5
5262.76
2615.16
10454.7
5178.35
5116.44
2588.79
2536.82
5216.27
2503.09
2586.72
1482.12
5252.8
5280.73
2567.32
5099.69
2539.56
2498.51
4720.21
2411.48
10352.4
2368.25
4855.39
2804.75
5048.33
5223.48
5171.86
2734.61
1808.85
10432.4
4693.98
2720.14
4862.6
4239.92
4315.12
4349.45
3040.43
2994.76
3405.3
3076.71
9437.09
9507.43
4957.78
2786.09
2750.97
2971.32
2807.15
2583.05
9276.07
4778.21
5137.15
5408.53
10370.9
3966.69
2084.04
1671.35
3970.44
2574.23
5216.23
5223.6
4751.41
10374.1
10343.1
5255.68
5080.43
10460
10460.2
10460.4
10069.2
4194.78
10448.6
10368.1
10412.9
2154.04
4958.21
10377.4
5040.99
1904.43
1900.47
5382.12
2125.67
1376.02
5393.83
2271.23
5055.45
10387.3
2283.06
5176.74
4679.84
5224.56
5116.26
779.746
3987.39
776.674
5239.06
2631.49
10408.5
10399.7
10247.1
10364.6
2633.01
1509.89
10150.9
9792.48
5183.44
5111.87
4665.46
5160.54
9715.59
10239.2
2011.42
10399.2
5263.52
4788.49
4777.11
2510.05
4864.35
5225.55
5229.87
4868.47
3770.66
5093.51
20933.2
20925.3
20926.2
20912
10331.5
20914.9
10414.8
10367.7
10363.2
4879.99
4549.62
4371.97
4769.99
5203.37
5228.35
10374.5
5183.39
2376.84
4932.21
4602.38
4622.71
5130.28
2612.17
2630.96
5240.67
3267.21
2715.95
5218.45
5089.18
2567.49
820.667
2902.44
2970.8
5170.11
10382
10263.6
10321.5
10296.8
5133.91
5150.13
10445.7
10454.3
2609.87
2535.52
2798.7
1932.04
2666.06
3254.1
10445
10411.6
10367.8
1050.21
4354.45
4653.85
2455.21
2602.33
4165.21
10313
10354.9
4801.73
10406.2
10344.9
10388.8
2614.8
2614.65
10396.8
20931.5
20932.8
10460.7
10460.4
10447.1
2144.79
2161.28
5003.14
5061.95
4948.42
1584.84
4024.42
801.035
1652.18
2396.39
2396.4
4969.76
10063.2
4328.04
9673.14
9965.59
9506.98
5147.36
2374.95
20931.7
20938.1
20937
20913
20930.8
20935.7
10357.2
10367
10423.5
686.862
688.218
5110.91
5021.1
3326.3
5194.47
5168.04
2626.54
2626.28
689.406
674.166
9906.7
3588.34
10153.9
2625
2626.75
2495.01
1857.36
4611.15
4603.06
4948.45
1925.58
596.997
2606.92
2021.21
1471.49
2348.85
4815.43
2609.81
10451
5193.41
10420.6
2498.63
3001.42
2186.73
4809.62
1884.92
2497.89
5068.51
5216.7
5219.65
5219.6
5285.8
2409.78
1245.47
5283.56
3926.54
1153.71
1160.58
2611.7
2614.78
10426.8
10441.2
10452.2
2432.87
4987.5
1635.42
3735.73
2646.83
904.588
945.26
2280.91
2228.21
1403.07
2593.72
2613.93
2292.43
4974.87
4849.02
756.856
10456.1
10451.1
10466.9
5056.21
5042.81
2114.44
10328.2
10348.1
10399.9
1681.38
5212.11
498.986
1560.03
5190.34
2084.43
5046.09
5056.51
5232.62
3021.33
2602
2451.37
836.69
4014.48
714.593
5135.37
2554.46
1330.79
2260.71
5029.79
4981.82
4962.23
5141.01
2561.57
1316.43
4121.4
3500.16
2396.39
2395.87
10440.1
10404.3
10438.8
10260.9
10300.7
10420.7
1222.55
2275.79
10427.1
10396.3
10269.7
10444
10436.8
10449.2
3479.58
4105.38
10361.2
10254.9
10189.6
10465.5
5230.63
10358.1
4513.87
10366.3
10153.6
10210.8
10141.4
818.997
2614.77
2614.8
10413
10436.7
10432.6
10414.2
10392.4
10284.5
5193.52
5124.73
5207.36
10179.9
10358.6
10380
1330.66
1443.35
1328.49
1180.04
4573.18
3864.39
3653.67
2415.77
971.206
2238.71
910.215
4296.26
10397.2
4443.31
5054.96
1460.41
2379.29
2565.12
4840.13
2618.62
2593.82
10431.8
10435.1
10401.7
10451.4
10454.4
10439.6
2537.57
5156.45
5148.4
2566.62
5013.12
5197.28
5180.65
4594.93
4596.21
4927.46
1430.54
1429.59
1449.06
1431.58
5217.98
5226.51
10431.1
5190.47
5226.71
5149.26
2618.49
5186.85
2630.2
826.35
989.741
1835.99
3387.31
5101.46
741.072
579.537
2022.75
605.032
653.895
2463.84
384.649
719.885
2959.07
2957.53
2959.21
2959.15
2369.04
2485.42
2963.56
2902.85
732.077
668.382
673.195
673.587
668.034
10369.8
10408.7
10400.5
5119.58
4972.59
4792.22
2628.57
5087.46
5144.12
2957.54
2959.06
2964.22
2956.3
2610.61
2616.85
2518.4
2608.85
5202.33
2610.43
2523.6
2546.51
2611.4
5201.71
2582.68
5168.99
5134.63
5008.63
5143.86
2589.76
2594.66
5204.39
5198.11
5222.62
5210.66
2595.09
2554.08
2657.95
4236.47
4915.78
2558.84
4672.21
4742.89
4150.83
4804.54
4902.96
10156.5
10316.9
10391.2
10099.4
10221.2
4299.8
5290.22
5105.25
5221.09
4689
4833.64
4801.19
5196.86
5206.12
5083.81
5190.19
1524.77
4999.16
4739.63
2713.9
2609.41
2614.35
3941.16
10118
10020.6
10369.6
10269.8
4459.19
1438.5
5440.66
10451.8
10452
4809.05
10393.8
5426.97
10414.7
10438.7
10436.7
10441.7
10438.8
10416.2
5330.66
10433.9
10406.3
10458.1
10456.5
5441.08
2614.92
2614.48
10452.5
10461
10458.6
10448.6
10459.8
10457.3
2982.46
5157.09
2397.61
2628.75
1562.39
4872.39
4817.47
3992.8
2276.09
1219.1
4690.02
1607.07
2377.27
2395.86
2396.41
5182.15
2500.42
2499.03
2500.59
2500.59
5184.28
5128.27
2374.48
5196.3
5174.98
717.094
687.146
5022.57
3000.34
3072.49
2999.24
2993.59
5008.52
2605.86
3104.45
1284.21
4973.26
5183.15
5202.94
5199.32
5185.2
4998.55
2625.16
2611.29
4997.45
2981.88
3015.13
581.641
1999.52
2584.03
2503.29
2493.89
4984.63
4663.58
5085.21
5117.06
2568.38
2649.23
2624.36
4902.74
5155.27
5124.52
5213.98
5197.81
5097.81
3200.88
5166.71
2777.25
1284.97
4539
4878.83
2615.34
2619.88
2498.5
2608.58
2359.4
5337.42
5231.13
5288.39
5373.07
1926.78
2982.09
2674.25
2956.33
2964.48
1430.86
1439.08
1429.79
1430.08
4939.55
4599.01
4596.35
1909.78
522.292
2600
2264.16
2193.98
5298.79
5046.63
5357.74
5363.24
1833.34
2440.73
4899.08
4912.76
1617.95
2569.98
1793.13
1844.65
2580.24
2607.03
1210.3
1348.99
5256.34
342.045
676.586
4840.1
424.464
2400.33
4884.51
1551.78
4848.91
5128.24
2605.69
2414.78
2537.83
2610.29
5188.33
2605.43
5153.1
2534.53
2604.68
2460.18
1944.03
290.347
4322.23
675.398
246.181
4368.38
2015.91
2980.28
5136.18
2517.63
2304.64
5216.2
5218.16
5203.93
5204.11
5211.15
5186.35
3133.11
5246.8
3495.98
2608.23
5200.6
5229.86
2767.14
785.793
2610.77
5160.97
932.394
1381.66
1389.07
5299.53
2669.28
2981.61
5033.39
1880.12
2452.03
2588.38
4919.67
5067.52
2103.8
1397.09
2559.14
5004.67
4829.94
1640.91
1455.07
5175.89
450.003
2407.44
1510.36
4901.85
1005.37
2379.2
2626.17
2648.6
2859.33
5226.36
5227.94
5085.71
5155.53
5282.93
3751.72
3543.08
1688.88
4922.67
5030.61
1958.88
1956.64
2363.59
1979.47
4335.31
5096.33
5112.39
2554.96
2577.24
4343.83
2572.2
2526.3
3018.26
528.882
525.481
528.539
528.786
3010.44
526.54
467.897
2971.43
2802.34
523.472
527.097
464.212
526.195
2840.37
2939.21
527.953
528.437
527.112
527.706
2864.7
5375.4
5245.97
5174.97
5258.09
5270.7
5439.49
4030.27
1882.55
4016.22
3541.71
1522.13
3923.6
4983.27
4957.02
2073.86
5263.71
3282.78
3453.56
5202.92
769.712
1950.88
1733.37
2296.14
2902.52
2112.8
2084.04
4998.73
4884.65
1329.61
5369.71
1468.11
1816.27
5369.96
5157.46
5043.23
2003.24
5134.63
5136.41
5212.76
3553.97
3024.58
3180.69
4965.44
1347.92
2614.55
2608.91
812
4037.46
748.753
2633.43
2607.38
5220.16
5234.99
5178.86
2503.59
2608.31
5221.56
5242.59
4742.54
4561.78
1418.32
5177.58
2499.06
2500.56
2447.06
2496.76
5163.19
2394.72
2351.23
4965.14
2375.24
1575.61
2496.67
2446.2
5108.9
2351.22
2394.7
4775.72
5076.97
5337.49
5352.57
4909.33
5204.4
2959.23
2959.23
2959.16
2959.21
759.774
2134.96
4829.36
2835.98
1510.26
2302.65
3304.53
4794
4924.99
2429.43
1817.3
2796.95
4948.41
1074.6
2614.55
2614.76
2605.44
2605.64
2595.53
2601.91
2610.69
2633.28
2607.4
2608.44
10425.8
10374.3
10388
5074.75
2514.97
5216.4
5211.61
5228.1
4966.24
4785.72
4643.58
2637.65
2639.91
2629.61
5102.09
2680.68
4903.94
5329.78
5330.72
5263.21
3132.24
3243.17
3760.44
4250.98
4780.35
4775.58
5009.01
5141.01
5175.66
5179.06
5204.24
5213.1
5330.72
5329.78
5263.18
10202.5
9781
9387.46
20919.1
20916.9
20873.6
20934.5
20919.5
20938
5157.87
10397.9
10431.7
20924.9
20932.5
20930.4
1821.22
2011.03
1562.45
4715.49
4785.16
4433.14
20935.4
20934.3
20929.6
3770.28
3157.49
2734.27
2308.53
2267.82
1587.52
841.253
1402.33
4920.11
4985.66
3397.87
3791.17
3336.93
2356.01
1067.07
20913.8
20930.4
20928
4980.4
4715.1
4612.61
5086.46
5141.08
5099.17
5230.83
5223.39
5217.28
2601.79
2617.24
2631.85
2009.6
5271.57
5340.14
5329.5
1951.62
1489.41
1498.33
1322.13
1443.26
1273.56
2674.23
1131.03
1361.42
5008.16
5033.84
5114.24
2609.46
2605.62
2602.88
979.319
993.528
2599.63
2595.52
2595.25
4326.2
1270.85
4253.99
5215.87
5213.58
5213.33
5214.76
2541.3
5209.08
2745.32
4545.4
4375.69
3682.71
1481.93
1481
1550.47
10117.1
10037.1
10286.4
1795.45
1025.73
579.802
1182.52
10420.9
10434.7
5210.38
1999.88
2190.26
1939.1
4767.7
4597.94
4639.02
10368.8
10209.8
10246.8
2333.5
2332.45
2129.92
1246.87
1286.38
2126.06
2329.05
2333.21
10463.3
10464.4
10466.9
10414.4
10453.7
10456.6
439.51
3199.47
647.851
1844.63
2257.01
2112.99
914.296
1083.95
834.168
10166.5
10258.6
10378.1
940.324
1301.22
4918.83
4979.14
4857.55
1459.87
5263.46
5331.13
5331.02
10436.3
10431.9
10333.2
10465.4
10458.5
10456
4426.53
5005.59
5060.96
5229.24
5219.33
5211.29
10413.3
10442.9
10457.8
10427.7
10426.8
10340.8
10460.1
10459.5
10441.7
1254.96
2545.35
2552.27
2542.35
1525.48
1526.71
1786.45
1950.39
5201.74
5154.81
5110.97
4751.92
1573.32
4853.1
4866.5
4448.57
4894.68
2027.29
2361.15
3973.71
1288.11
5079.23
5165.04
5195.19
1947.47
1565.44
2622.17
2619.75
10391.5
10437
10444.7
10474.5
10476.6
10495.8
4694.39
4879.14
5058.63
2283.29
4925.3
5104.78
5152.08
5241.97
5230.28
5222.73
4978.62
5024.75
4700.88
2244.34
2622.03
2634.15
2623.02
818.509
1245.97
676.108
1970.58
1545.55
1501.46
5063.19
2692.01
5163.97
10479
10471.9
10472.5
10471.4
10471.7
10478.9
1319.93
1319.62
1319.99
1319.98
5263.33
5331.05
5331.15
5071.48
4992.29
5040.57
728.936
10355.8
10399.1
10373.7
5014.07
4765.73
4182.05
4954.23
5010.25
2619.99
10443.8
10435.9
10382.9
10486.1
10474.7
10472
10467.8
10474.7
10494.2
1319.97
1319.98
1315.28
1316.46
5264.43
5329.34
5339.97
2564.85
2598.37
2514.62
2521.66
2405.71
2650.38
2619.37
2634.91
2625.13
2618.28
2640.35
2646.79
2622.19
2627.58
1863.72
1714.26
967.748
5002.72
4928.27
4206.43
4384.54
4646.9
4254.48
5151.7
5163.97
5003.65
5221.66
5209.02
5199.8
3618.35
4345.92
4251.31
1139.76
775.608
694.696
5388.12
5260.15
5219.96
1510.1
4901.41
4950
5234.78
5281.29
5438.69
5229.89
5227.7
5227.69
5226.61
5227.35
5229.65
4012.24
1527.04
1998.03
1986.92
4035.28
3882.26
3569.78
4313.11
10421.5
10449.9
10442.4
2564.69
2539.97
2645.64
2599.11
5192.11
5221.27
5203.69
4534.34
2343.69
4865.16
2466.92
2308.98
2368.77
2589.4
1878.65
2006.66
2155.79
1875.2
2500.63
2554.6
2574.13
5140.72
5135.23
4968.7
1274.03
2068.09
2191.74
2388.03
4675.52
4438.2
3742.4
2623.17
2622.96
2518.85
2585.06
5193.13
5194.68
5104.25
1180.02
1426.03
1765.02
3075.32
2425.95
3541.52
3622.08
1869.5
5313.65
5369.54
5281.38
1329.6
685.836
1319.31
1317.56
1336.96
1421.47
1802.9
1115.69
1274.13
1215.84
2594.76
2596.21
2535.12
2530.4
2514.65
5012.73
5141.8
4937.46
2555.99
1711.5
3249.25
3252.75
4905.33
4880.85
4931.01
3970.23
4617.91
4839.97
2596.53
2573.21
2079.34
2047.34
1574.58
5023.6
4993.56
5050.54
683.077
866.878
642.623
698.567
5075.52
4988.49
4695.24
2544.41
2584.59
2578.73
1443.8
1346.47
1724.13
2237.93
2244.78
2449.92
2336.21
2558.68
1812.22
1861.02
2219.51
2778.92
2204.45
2444.8
2467.8
5304.07
5241.18
5231.58
5177.7
5200.24
5191.85
5194.13
5194.77
5142.08
1251.36
2954.36
2515.62
2402.81
2441.33
5217.02
2577.06
5206.33
2553.79
2578.42
2486.66
2553.55
2593.39
2626.58
5369.07
5311.03
5264.38
1330.35
1316.45
5065.63
2403.41
2591.15
2571.02
2536.04
2423.92
2318.72
2518.57
1385.11
4796.52
4934.82
2449.45
2283.74
2132.05
1964.01
4969.57
4115.93
4620.75
5221.36
5223.49
5224.13
5174.48
5223.7
5210.82
2622.73
2633.41
2664.32
2173.4
2121.82
1727.08
902.254
632.335
4948.68
5040.68
4907.72
5160.93
5091.25
5086.06
772.938
774.744
1248.35
1515.89
3669.84
4404.52
4706.44
2820.1
567.425
2463.08
5156.21
5081.31
4961.57
3065.28
2365.09
561.201
4525.01
3676.89
4424.55
3972.06
1751.35
2970.98
3986.68
5160.91
2601.88
5224.94
5216.13
5218.13
3913.04
4259.46
784.204
820.124
2399.42
2924.64
4915.19
5074.14
5120.49
1873.4
2208.44
2234.38
1506.63
1875.56
750.776
844.472
1504.57
2454.17
2263.15
1911.93
2579.02
2258.95
1904.58
2603.98
5151.31
5208.68
5215.25
5213.82
5216.27
5224.08
5071.73
5185.11
5186.76
784.886
3973.89
772.89
2633.29
2623.43
2624.69
2631.41
2633.8
2635.73
1972.35
1948.32
1496.48
2528.6
2557.72
3248.22
3248.61
2454.38
2859.13
5331.14
5331.14
5263.5
1319.98
1320
1319.95
1320.01
2478.47
2399
2495.88
5228.32
5226.87
5225.53
5227.46
5227.38
5229.57
5127.58
5036.52
4526.98
3230.88
5180.32
5206.51
5181.62
10406.8
10427.5
10381.5
2451.26
4832.9
1188.93
2407
5075.31
2586.24
5181.31
5196.91
5172.68
2274.58
2588.65
1450.32
1904.52
2639.35
2638.22
2639.71
2639.66
2630.86
2640.7
2640.8
3548.19
2939.16
2827
2564.6
2883.72
3443.35
3017.36
2814.9
2846.35
1348.27
1546.56
1107.61
2915.82
2213.59
2132.81
2471.42
2352.64
2941.13
5178.69
5157.28
5097.03
2603.85
2584.79
2620.7
1905.73
1545.01
1140.67
1830.29
1075.61
2703.98
3006.45
3056.79
2680.42
2668.81
1160.76
1517.45
1376.85
2543.24
2552.7
2472.84
2599.64
2586.9
2584.27
678.992
3068.3
2960.87
4705.18
4935.93
4990.98
2614.66
2606.85
2607.13
2606.99
2606.99
2614.94
2303.7
2083.45
452.501
1648.28
2078.76
2049.16
4010.13
662.716
1243.29
947.459
1884.86
1937.38
1499.5
2396.43
2396.41
1260.63
3783.12
4371.92
2568.3
2539.02
686.521
686.544
3016.13
1686.08
4953.34
1453.25
1418.36
710.007
3344.39
3232.66
3094.4
2626.51
2621.47
2621.48
2621.14
2621.4
2626.05
704.966
711.648
4278.61
4223.32
3662.17
2626.23
2621.27
2620.7
2621.51
2621.45
2626.38
2502.11
2582.11
2566.51
2590.8
2507.01
2634.51
2623.14
1852.68
1478.13
1483.34
1936.54
758.516
757.516
764.102
760.324
1453.05
821.387
1090.64
919.251
1411.4
2630.71
1696.19
1282.02
1796.7
598.676
1275.94
933.846
555.244
2056.39
1568.48
2188.32
1928.74
2216.12
2607.61
2607.27
2610.48
2571.76
2575.51
2460.74
3072.67
2568.44
2531.95
2192.16
2479.74
2937.85
2261.41
2312.97
2013.55
2528.34
2461.68
2429.8
3578.51
3577.39
3578.36
3579.44
2100.96
1655.1
3582.89
3578.23
3633.73
3600.95
1023.71
1272.42
1412.47
1503.16
1202.74
897.348
2610.86
2602.31
2604.24
2607.41
2602.14
2610.99
2659.26
3183.76
2715.36
2178.57
1969.39
3495.78
2976.67
959.062
1291.7
1248.29
488.534
1372.15
1263.8
1493.8
1506.07
958.162
2303.02
1987.94
1969.89
2208.19
796.882
720.685
1286.1
2615.67
2623.61
2589.14
2608.28
2616.68
2615.96
2357.28
2338.31
2273.13
876.043
742.243
2125.98
2328.81
2319.09
1678.27
1552.17
1594.41
1271.35
1412.55
754.733
3244.04
3530.21
1573.06
2420.94
3361.41
2575.87
2300.17
2320.52
2114.65
3042.35
3364.93
2963.98
2831.07
3125.91
2582.99
2580.88
2597.3
2449.11
2541.33
2542.4
928.483
3773.76
652.043
2416.01
2458.2
2562.38
1819.36
2227.87
2052.51
2348.53
2093.74
449.678
2438.29
2473
2569.28
1673.37
1423.75
1131.86
2396.33
2396.23
1697.94
2094.29
1730.21
2032.44
2625.19
5235.28
2624.51
4765.83
4964.4
4817.49
1196.12
2614.79
2606.99
2606.99
2606.99
2606.99
2614.79
1316.93
5160.81
2508.26
2620.76
2623.92
2546.56
2614.87
1398.91
746.452
724.608
763.559
757.197
1429.1
1135.3
908.465
1175.08
658.163
730.211
1067.33
2375.03
2505.51
2508.37
2497.4
2333.38
2540.32
2552.4
1085.11
1106.27
1954.99
1496.54
1985.9
1775.56
2097.23
1210
2600.02
2547.74
2622.31
2611.59
5131.99
5159.85
5172.04
4863.46
5068.17
4957.78
824.687
2800.08
3206.58
893.239
4913.03
1645.11
4983.05
1344.02
1456.25
1845.02
1604.11
1319.16
2363.42
2080.46
2170.51
2534.02
2382.38
2518
2446.94
2550.78
2615.57
2622.3
2625.25
2596.06
2614.77
2608.53
2612.68
2592.18
2107.69
1476.19
5102.59
2217.53
2595.68
5133.61
5101.8
4918.6
1429.93
747.494
747.701
747.367
747.401
1429.8
1438.72
751.686
757.233
748.239
749.321
1433.99
5215.94
5228.55
5238.6
4973.24
5112.96
5181.55
2612.87
2640.28
2638.58
2627.62
2638.58
2639.47
2626.75
2635.67
796.682
1851.63
2573.91
2363.68
2044.85
2756.17
2688.36
3261.89
699.593
889.059
548.008
1721.56
1592.08
1958.59
987.7
451.985
790.434
838.475
3112.26
3243.02
918.331
2702.95
811.517
823.129
1319.98
1319.99
2958.78
3639.08
3639.23
3637.62
3638.68
2958.44
2959.19
3639.29
3639.27
3639.26
3639.29
2959.18
1319.99
1319.98
2503.87
2427.1
2305.25
2593.21
2401.53
2341.93
2334.74
2326.62
2939.46
2354.45
2459.2
2124.25
2209.74
2916.75
975.049
1515.9
1312.77
668.394
668.724
668.542
668.01
2606.12
2607.04
2633.27
1319.59
1319.94
2958.4
3638.61
3637.7
3639.01
3639.31
2958.82
2956.83
3631.33
3637.33
3635.46
3633.06
2955.17
1317.54
1319.32
2594.73
2617.66
2576.83
2600.35
2601.02
2592.75
2602.96
2526.65
2572.16
2577.32
2588.02
2583.99
2553.69
2603.18
2599.14
2605.39
2586.67
2569.1
2567.51
2601.41
2603.04
2593.53
2600.96
2604.87
2601.22
2602.66
2607.89
2601.35
2558.68
2564.85
2524.69
2512.93
2553.88
1230.42
1896.27
2031.53
4355.69
4733.29
4752.89
2582.2
2596.55
2379.33
2532.85
2601.91
2596.81
2600.63
2602.09
2502.98
2562.8
2090.11
2372.33
2639.5
2699.39
2590.06
2609.51
2191.99
1032.83
837.64
1568.91
692.833
2662.09
2472.35
2780.9
2612.62
2605.98
2604.61
2606.85
2606.67
2613.8
4584.49
4416.32
3572.92
4736.75
4957.08
4814.37
1014.54
5283.11
5285.82
5448.13
4997.6
4927.68
4557.92
5265.16
5149.99
5249.78
5242.07
5203.16
5209.1
5456.08
5293.89
5275.26
2614.77
2606.82
2607.13
2606.66
2607.1
2614.6
3770.48
2562.69
2570.5
2464.15
2629.93
2613.41
2612.93
2030.27
2011.9
1540.06
3995.51
2095.23
1699.26
1945.89
2144.31
1907.02
2433.76
2324.32
2229.32
2396.22
2396.33
2500.06
2549.87
2550.15
2547.42
2549.08
2499.86
2500.64
2550.21
2550.12
2550.32
2550.12
2500.66
2360.01
1067.78
2580.52
2573.23
697.648
693.767
3017.78
2605.85
2585.23
2628.04
2633.21
3048.02
2993.21
2574.96
2582.86
2575.49
2572.84
2991.97
2669.58
2647.21
2564.86
3212.95
3173.54
2998.48
1237.95
1375.17
2624.29
2617.03
2620.09
2590.64
2608.66
2618.56
3052.09
2599.81
2529.41
2600.88
2618.61
3039.64
2268.66
2449.82
318.832
1806.92
2172.43
1976.77
1544.76
2606.55
2306.03
2487.34
2363.18
2328.49
2590.77
2569.33
2549.08
2626.15
2618.48
2637.38
2619.52
2617.89
2622.8
2679.13
2675.61
2901.95
2816.89
2930.59
2785.45
1616.79
1902.05
1585.08
2622.05
2622.92
2618.67
2625.71
2623.71
2626.27
2626.37
2619.73
2562.01
2576.04
2508.01
2618.57
2605.94
2593.21
2610.27
2619.16
1094.39
1100.45
2307.53
1873.47
2123.7
1993.15
2331.09
3686.84
3569.29
3623.89
3656.11
1843.29
1316.48
1330.88
2979.92
3689.28
3664.7
2950.54
3589.18
2903.82
2955.15
3632.84
3635.67
3637.61
3631.27
2956.68
1316.46
1315.32
1431.83
748.313
747.796
751.811
749.4
1434.39
1429.66
747.398
747.364
747.553
747.455
1429.98
751.686
746.841
756.849
755.532
1883.95
1458.81
1472.03
955.553
766.225
917.556
795.123
1542.44
2598.5
2535.09
2601.38
2008.54
2374.06
2431.65
2404.01
2143.57
2422.39
3287.02
3187.28
3263.22
3282.47
2280.62
2475.67
2290
2426.84
2498.18
2431.59
2522.06
2394.48
1561.22
2051.5
2122.2
698.907
691.538
2487.14
2962.91
3010.81
1081.48
2683.29
2235.42
2357.68
2937.36
2604.55
3017.87
3004.07