/*--------------------------------*- C++ -*----------------------------------*\
  =========                 |
  \\      /  F ield         | OpenFOAM: The Open Source CFD Toolbox
   \\    /   O peration     | Website:  https://openfoam.org
    \\  /    A nd           | Version:  dev
     \\/     M anipulation  |
\*---------------------------------------------------------------------------*/
FoamFile
{
    format      ascii;
    class       volScalarField;
    location    "600";
    object      yPlus;
}
// * * * * * * * * * * * * * * * * * * * * * * * * * * * * * * * * * * * * * //

dimensions      [0 0 0 0 0 0 0];

internalField   uniform 0;

boundaryField
{
    inlet
    {
        type            calculated;
        value           uniform 0;
    }
    outlet
    {
        type            calculated;
        value           uniform 0;
    }
    ground
    {
        type            calculated;
        value           nonuniform List<scalar> 
5358
(
44566.7
44567.8
44567.9
44568
44568
44568.2
44568.3
44568.5
44568.8
44568.8
44568.7
44568.5
44568.2
44567.8
44567.6
44567.4
44567.3
44567.2
44567
44567
44567.4
44567.5
44567.4
44567.6
44567.6
44567.7
44566.4
44566.6
44566.7
44566.6
44566.5
44566.4
44566.4
44565.3
48110.8
48109.4
48109.3
48109.1
48109
48108.9
48108.2
48108.8
48108.4
48108
48107.7
48107.2
48106.4
48105.9
48105.9
48105.6
48105
48104.9
48105.5
48105.6
48105.5
48105.9
48106.5
48106.1
48106.8
48107.3
48106.6
48107.5
48107.4
48107.6
48107.8
48107.9
48108
48109.2
50579
50577.4
50577.4
50577.3
50577.2
50576.9
50577.2
50577.9
50577.7
50577.7
50577.9
50578
50578.3
50578.5
50578.5
50578.3
50578.4
50578.3
50578.1
50577.7
50577.5
50577.3
50577.3
50576.4
50576.7
50577.6
50576.1
50576.3
50575.9
50576.2
50576.4
50576.5
50576.4
50578.2
51870.1
51867.4
51866.9
51867.1
51867.3
51866.9
51867.7
51867.6
51867.5
51867.6
51867.5
51868
51868.1
51867.7
51867.6
51867
51866.6
51866.5
51866.9
51866.3
51866.5
51867.4
51867.5
51867.5
51867.4
51867.8
51866.9
51867.3
51865.8
51866.8
51866.4
51866.5
51866.8
51869.5
52383.4
52379.7
52377.6
52377.2
52377
52375.7
52375.7
52373.8
52372.9
52371
52368.6
52364.8
52362.1
52359.8
52358.3
52356.7
52355
52355.3
52357.1
52360.7
52363
52364.4
52366.3
52368.4
52370.8
52372.3
52373.1
52375.2
52375.5
52377.2
52376.3
52377
52378.9
52382.3
52436.6
52432.7
52428
52426
52425.7
52422.1
52418.5
52413.2
52407.8
52400.1
52392.8
52384.2
52374.1
52363.8
52358.3
52353.2
52350.4
52352.8
52358.5
52365.1
52373.1
52381.8
52389.3
52396.6
52402.9
52408.5
52412.9
52417.3
52420.9
52424.1
52424.8
52425.9
52430.6
52434.5
52229.9
52224.8
52218.2
52213.4
52210.4
52203.5
52195.1
52184.5
52172.3
52157.6
52138.7
52114.5
52091.3
52067.7
52049.4
52038.3
52034.4
52041.1
52054.7
52074.8
52094.2
52110.6
52127.6
52143.3
52159
52172
52182.4
52192.4
52200.8
52206.8
52210.7
52214
52221.3
52224.9
51884.4
51879.4
51869.9
51860.9
51853.6
51842.8
51827.6
51808.4
51784
51753.6
51718.7
51678.8
51626.4
51571.8
51532.1
51510.1
51506.9
51522.1
51549.3
51585.7
51625.8
51664
51698.8
51730.1
51758.4
51783.3
51804.7
51822
51837.1
51847.6
51854.3
51861.8
51871.7
51876.6
51473.9
51468
51454.9
51442
51428.7
51412.2
51388.9
51357.7
51320.8
51274.2
51209.9
51127.3
51050.4
50980.1
50924
50892.6
50888.7
50909.1
50946.6
50994.4
51045.4
51101
51160.7
51217.4
51267.3
51311
51346.5
51376.1
51400.7
51418.2
51429.4
51442.3
51454.9
51461.5
51041.6
51033.8
51019.2
51000.6
50980.5
50954.5
50922.8
50877.5
50818.3
50744.7
50666.4
50570
50459.2
50348.5
50255.2
50203.3
50196
50224
50284.2
50358
50435.7
50513.7
50588.6
50656.8
50722.8
50792.3
50855.7
50902
50936.4
50962.1
50979.9
50999
51015
51023.1
50612.7
50603.4
50587
50563.7
50536
50499.9
50452.6
50395
50327.6
50256.4
50167.7
50047.7
49894.4
49732.3
49586.1
49485.5
49440.9
49460.7
49552.5
49664.4
49785.2
49900
50006.4
50102
50186.5
50265.3
50343.4
50416.2
50467.8
50503.9
50532.7
50557.7
50577.4
50587.2
50202
50191.7
50173.2
50146.7
50111.9
50066.3
50007.4
49952.9
49890.7
49825.2
49766.1
49799.8
23291.8
22955
22471.1
22124
22159.7
22502.3
22740.6
22918.9
23088.6
23256.3
23406.3
23533.8
23637.8
23722.2
49895.3
49952.5
50012.3
50063.3
50102.7
50133.8
50157.5
50168.9
49817.2
49806.7
49786.8
49757.7
49717.7
49665.9
49615.7
49564.7
49513.2
49487.1
49580.8
50220.5
22460.5
23841.4
10199.2
9697.83
7433.07
11227.4
21100.5
21129.3
21392.8
21700.7
21947.8
22155
22316.2
22438.7
49527.2
49540.6
49597.7
49651.4
49699.7
49737
49764
49777.1
49462.5
49451.8
49431.1
49400.9
49358.2
49313.3
49269
49221.7
49185.2
49215.1
49523.7
50952.3
24455.2
32395.1
9523.71
7102.15
9513.19
25250.7
21779
21095
21547.2
21843.8
22041.2
22181.6
49231.3
49180.1
49232.8
49284.5
49331.5
49372.5
49401.7
49416.2
49138.9
49127.4
49107.6
49077.1
49037.7
48999.3
48956.6
48909.2
48879.9
48934.5
49372.9
51326.1
25340.9
13521.5
22345.6
12195.4
12587.9
3388.24
13002.1
13783.7
36323
23475.1
21847.4
22027.7
22197.5
48980.9
48870.4
48913.4
48964.2
49006.8
49043.6
49072.6
49088.1
48844.5
48833.2
48814.7
48785.3
48751.9
48715.8
48669.8
48616.9
48577.3
48609.6
49088.7
51484.5
26191.4
8348.37
2355.87
3698.56
5248.68
3568.35
2660.88
5113.38
3886.12
32730
25424
22500
22107.5
22246.2
48745.1
48604.4
48636.3
48683.4
48722.8
48753.5
48777.4
48792.8
48577
48566.8
48549.8
48522.6
48493.2
48456
48404.9
48342.6
48278.1
48266.9
48829.2
51875.5
27379.7
8138.61
27579.2
27921.6
22362.6
41700
30099.1
22549.1
22378.9
22307
48496.2
48366.4
48392.1
48434.6
48472
48497
48515.8
48527.8
48333.5
48324.1
48309.1
48284.7
48257.1
48217.4
48161.2
48087.1
47992.2
47951.7
48687.2
52373.3
28354.5
15888.1
13471.2
17309.5
9242.99
34847.5
28072.8
22107.5
22361.5
22387.9
48232
48138.8
48169.3
48209.5
48244.9
48267.5
48281.6
48290.8
48110.5
48101.3
48088.7
48066.1
48037.8
47995.3
47934.2
47847.8
47718.8
47647
48472.9
52217.3
28197.3
27616
1421.23
2169.68
19140.5
30866.5
17751.4
28479.3
24192.6
20304.1
22261.8
22473.6
47959.4
47910.3
47956.4
48000.3
48035.2
48055.5
48066.8
48074.8
47902.6
47895
47883.8
47860.8
47830.6
47785
47717.4
47615.9
47444.4
47312.8
48095.6
51484.4
27465.1
25853.4
5786.84
2302.69
1360.37
2312.63
2515.01
27335.9
23095
20341.1
22870.3
22537.9
47676.4
47679.8
47748.1
47798.1
47835.3
47855.5
47867.8
47875.4
47707.3
47699.6
47687.7
47664.3
47630.3
47579.7
47502.8
47382.7
47160.1
46937.5
47572
50422.5
26395.3
24658.3
16081
2220.15
1955.45
7417.41
19632.6
25476.6
34134
25041.9
22229.5
24399.5
22560.3
47383.9
47448
47542.3
47599.5
47640.8
47665.4
47679
47687.9
47521.3
47513
47500.5
47476.5
47435.8
47377.5
47289.6
47147.7
46869.5
46530.4
46949
49229.2
25262.1
23832.1
16221
13148.9
14572.8
13572.1
17527.6
17045
26325.3
35457.7
26706.2
24855
26066.2
22515
47091.1
47219.7
47339.8
47406
47453.3
47482.8
47498.1
47508
47341.3
47332.7
47319
47293.9
47248.5
47178.7
47076.6
46912.7
46582.3
46115.6
46283.4
48040.8
53215.1
50891.2
48561.2
43466
41119.2
36647.6
32041.1
48167.3
64552.5
74306
63407.4
65319.9
55971.3
47331.5
46829.1
47007.3
47148.8
47221.3
47273.3
47304.5
47321.8
47332.5
47166
47156.8
47142
47115.1
47066
46986.7
46868.1
46676.1
46296.9
45715.5
45650.4
46829.5
51876.2
51803.1
52829.4
51764.4
47301.5
41621.5
39119.9
49711.2
61869
69860.2
63003.5
63341.7
54810
46989
46598.3
46814.5
46965.2
47041.2
47095.7
47129.8
47148.9
47159.6
46994
46984.3
46969.1
46941.4
46888.6
46803.3
46670.3
46448
46023
45341.2
45062
45651.1
50420.5
52222.4
55349.7
55897.2
51544.6
44934.2
42359.2
51755.9
61285.3
67260.8
63196.7
61970.4
53800.3
46722.6
46381.3
46627.4
46782.7
46864
46920.9
46956.9
46976.3
46988.1
46824.3
46814.4
46798.2
46769
46713.1
46621.7
46476.6
46231
45762.4
44995.1
44526
44571.5
48984.5
51685.2
56268.2
58396
54280.2
46927.8
43506.1
53459.2
61492.1
65522.3
62942
60662.7
52915.2
46503.9
46178
46444.1
46601.8
46687.5
46747.6
46785.1
46805.1
46817.5
46658.1
46647.5
46630.2
46598.9
46539.1
46442.4
46288.4
46022.9
45518.6
44681.9
44047.8
43615.6
47637.2
50333.5
56166.5
59957.5
56430.4
48775.7
44199.7
54661
61765.5
64188.4
62254.8
59402.5
52144.5
46315.7
45989.5
46265.5
46424.2
46512.8
46575.5
46614.6
46635.7
46648.9
46494.1
46483.4
46464.7
46431
46368.7
46267.4
46106.7
45825.5
45295.2
44405.5
43632
42793.6
46414
48587.9
55727.7
60851.4
57796.4
49889.1
45210.9
55461.8
61887.4
63058.5
61354.7
58246.1
51474.3
46149.5
45816.2
46093.4
46249.9
46340.7
46405.9
46446.4
46468.9
46482.1
46335.4
46324.1
46304.1
46268.3
46204
46100
45934.8
45643.3
45094
44167.8
43279
42103
45320.5
46857.5
55341.6
61321.2
58428.6
50496.1
45840
55926.3
61824.4
62058
60403.7
57198.3
50886.9
46000.4
45658.5
45931.6
46083.8
46175.6
46240.9
46282.8
46307.2
46320.3
46178.4
46166.8
46145.7
46108.3
46043.1
45937.7
45769.7
45474.1
44914.8
43966.6
42985.5
41540.1
44386
45452.9
55302.6
61715.5
58891.7
50959.7
46219.6
56150.6
61711.9
61220.4
59505.9
56270.5
50373.2
45866.8
45516.8
45778.6
45923.5
46014.9
46079.8
46121.8
46146.6
46160.2
46034.2
46022.5
46000.7
45962.4
45897
45792.1
45623.7
45327.1
44763.6
43802.8
42749.3
41089.1
43572.5
44310.3
55151.9
61639.7
58835.5
50989.4
46185.8
56074.8
61303.8
60345.5
58576.5
55387.4
49907.3
45750.3
45395.7
45644.5
45780.7
45870.4
45933.1
45975.2
46000.3
46013.6
45884.9
45873.4
45851.5
45813.1
45748.5
45645.6
45479.4
45186.7
44628.4
43668.4
42562.3
40765.2
42926.5
43943.2
55818.5
62340.6
59729.5
51641.4
46955.5
56217.5
61207.7
59777.1
57879.4
54667.4
49501.1
45641.8
45285.3
45515.3
45639
45724.3
45784
45824.3
45848.9
45861.5
9793.99
9807.49
6542.45
23232.8
17052.6
11160.6
23465.4
9624.67
3661.05
17249.1
1448.06
7943.46
12211.8
1788.7
1243.57
1235.19
2725.42
26215.9
5885.21
787.558
13211.7
2120.92
4161.25
22556.5
13307.9
2149.7
4256.78
4743.82
9584.55
2403.99
26693.7
4882.89
9793.11
3404.18
7448.07
19488.6
3171.12
8884.32
20740.5
28730.8
8448.4
3135.99
22043
46748.6
18704.7
16228.5
442.57
1084.08
11855.7
687.263
9495.38
10547
9616.82
21496.2
12404.8
1766.21
19863.1
428.679
2613.45
3604.92
1649.71
5292.53
14989.1
12174.7
1707.87
335.309
2146.06
1617.64
202.515
457.858
7057.07
7103.01
8470.42
7994.25
13003.7
31359.9
8964.69
496.821
16339.3
6403.13
460.949
14528.3
16582.4
3960.47
8753.85
5731.76
12019.9
16437.6
693.68
8163.61
14325.2
18109.3
16136.9
5400.22
4057.23
22049.7
10068.7
21661.2
22286.7
9902.55
11299.3
13149.9
5052.42
21455.5
13934.3
10638.6
21053.3
21150.4
12914.7
19989.4
34944.9
13905.8
725.208
7622.67
4308.98
2884.44
1313.32
5943.98
9375.59
11163.8
9485.93
2385.16
8244.32
1512.47
25274.3
29828.6
24140.2
20916.2
39201.8
29102.2
13157.5
14086.7
25786.3
12122.4
1437.43
4524.89
12206.5
8362.63
4859.01
1870.15
2979.65
391.932
13310.9
3890.9
13424.6
7939.03
27528.1
26409.3
30556.9
14885.7
16892.3
26737.8
8206.85
9477.05
2765.74
3764.58
12383.3
58648
25626.6
4186.57
16492.2
18067.6
4136.15
5501.23
4724.89
14269.7
40770.1
20071.5
17183.9
16929.9
27993
7929
2360.03
2447.52
12080.1
11476.6
29064.7
2770.09
3441.31
10977.6
3485.62
2823.9
7455.47
9207.69
1983.59
22940.5
8622.97
11563.4
4785.69
29271.1
14019.6
9631.91
7906.72
2860.5
2317.72
3601.49
3809.59
8793.27
22711.1
8801.44
8280.39
4152.1
4169.2
26655.8
1003.2
20294.3
3440.37
2412.81
21874.9
4230.32
3454.82
38448.2
13297.3
4613.03
7267.81
5974.2
4764.15
5799.89
13274
2376.7
1655.82
7923.41
6446.13
1089.42
3376.42
1805.49
3839.23
3063
2673.03
6179.66
15767.3
17842.6
3042.54
6479.61
7235.99
2584.06
10777.3
10320.6
5261.15
12495.4
8936.06
5859.9
10298.8
7048.81
4166.04
1500.02
858.569
22257.9
1220.47
1896.17
7446.56
8891.75
24225.6
7145.92
1574.66
7504.17
23440.1
9737.47
2661.67
615.414
13751.3
2077.93
5551.62
12161
1224.11
1278.85
1770.19
2853.52
1724.21
10397.1
123.246
13531.8
1489.84
9133.2
692.28
3553.04
12918.5
1706.98
3528.11
1538.97
5829.88
16106.4
14519.3
6463.67
5154.21
2337.97
2879.82
4655.66
2123.63
2529.71
1975.03
5762.57
4400.43
7473.16
2908.52
12988.5
4070.08
4294.25
7109.86
1285.81
23772.4
7700.71
4475.67
12970.7
5302.92
4167.33
3797.48
1680.18
7734.67
1862.67
1837.68
1979.59
3023.08
7844.02
1400.4
11062.4
3006.55
2267.13
6027.52
2583.6
21859.5
2255.25
5270.32
3676.92
11914.3
9707.63
11422.3
3371.34
2337.75
29420.2
10609
3608.7
9589.78
8641.22
8033.77
7279.58
5525.2
6191.22
6426.4
5486.16
22776.6
22926.5
9093.89
6050.17
5732.42
6365.42
6150.48
5490.39
21890.5
8937.08
9525.73
9768.74
14953.9
4797
3190.96
2619.63
4753.9
1326.68
6693.27
8600.75
7626.59
15581.4
13612.2
3406.79
3024.25
9511.34
7260.36
9454.33
22966.6
5332
11487.7
13568.9
14875.5
2391.55
7913.32
15120.3
8172.12
2253.8
792.758
2630.5
946.84
1083.67
2455.42
535.115
3445.49
12471.4
1209.39
6555.37
4308.03
5545.59
4430.26
506.528
2422.42
515.403
1830.43
562.337
6095.58
8480.35
5915.84
5640.76
568.605
1061.14
5664.44
6388.14
2528.42
2059.68
2429.33
3039.76
7378.12
7168.96
2685.73
13653.8
8196.49
4420.54
4041.58
1511.13
4233.66
8242.84
7637.41
4428.32
3474.52
4415.86
22293.4
21627.8
21830.2
26174.5
20426.4
29991.3
10303.8
10720.6
13021.9
7074.46
9047.44
7907.85
9073.31
6082.3
5715.21
26723.9
9910.45
3325.5
12248.9
12413.2
12332.3
11304.3
5433.44
2840.12
14169.3
6080.3
5018.31
4724.94
3941.58
1546.42
689.28
1605.05
1637.22
6843.42
17269.4
16196.4
8688.52
9159.68
3537.05
5748.41
15493.2
14538.8
3508.52
3129.48
3664.68
2608.58
4408.51
4287.27
17925.6
16118
18206.5
1205.15
8454.23
10121
3856.91
3638
3998.62
7333.84
6198.8
3132.44
15300.9
12509.1
15647.9
2863.52
2649.32
9284.98
22069.9
25201
3863.62
4641.53
5228.34
1086.02
349.572
1598.85
3477.38
3276.42
1228.57
3218.22
99.887
1402.81
489.767
475.071
4140.96
9499.1
2571.56
6490.91
6450.54
7991.31
2842.76
1125.46
15964.4
14641.3
17770.3
22156.3
21969.6
18240.7
15906
16217.8
9991.96
549.11
387.967
8622.86
10592.5
4562.38
7587.55
5702.53
3131.9
3008.2
443.125
704.074
15223.8
3719
20173.8
3105.34
3136.22
4165.5
1257.66
11837.8
11947.2
12038.2
1693.67
460.443
1599.11
1792.11
740.019
1001.16
2806.98
2049.17
19645.7
9123.1
26848.8
2231.39
1625.13
932.014
4363.67
2381.88
2771
9698.5
2543.83
2683.16
3018.41
3695.35
2879.64
1298.37
3663.35
8835.28
1861.37
1487.38
3365.31
3834.94
23345
24451.7
21293.3
3602.67
9461.09
2095.68
4507.74
2494.99
1508.67
1648.67
3687.95
748.474
1604.15
2708.29
3134.35
1939.05
6645.1
4933.67
192.747
9110.87
8002.94
9083.12
5195.22
5588.55
1992.96
21337.9
19295.4
17496.1
768.937
2802.87
244.65
1025.21
1885.09
1299.05
3721.69
4301.14
5716.33
3188.92
2036.76
1760.47
472.145
2829.41
427.913
2096.03
339.764
207.842
429.224
2850.23
3931.01
2236.15
2282.86
504.987
819.998
2735.24
2293.82
468.567
444.321
6220.06
5546.86
6366.72
7602.72
4719.59
5132.96
202.869
500.991
8581.59
8101.33
7606.35
7210.02
7848.31
8534.1
2131.26
2037.6
6376.69
6558.78
6155.75
8349.64
4053.85
16979.3
7750.24
17239.4
11243.4
10071.4
10795.9
292.296
3087.22
2928.71
9723.31
9564.23
9539.68
9619.99
9651.51
10736.8
5968.83
6507.86
5805.96
18408.1
17061.3
17678.2
1633.86
2102.6
1370.89
1355.88
8250.82
6182.84
5244.36
4191.94
556.315
3812.85
369.565
9885.22
16793.7
10143.3
8815.35
2808.21
4434.43
4731.79
10260.9
4568.46
4696.92
12732.2
20228.5
28270.2
22592.8
20049.4
26573.8
3931.39
12093.5
3637.75
3618.44
7181.45
8510.95
5064.05
12415.6
12464.1
12278
2983
2967.87
2954.98
2971.91
8320.01
12380.5
22025
8197.86
11198.4
7872.03
4994.49
8027.17
2972.22
249.047
291.054
3542.69
6332.78
14114.5
841.803
864.906
4349.08
753.377
837.782
4784.19
393.807
923.924
3486.43
3565.63
3353.25
3514.26
1583.25
1293.8
1393.52
1563.81
635.595
342.559
103.006
253.697
351.451
21850.5
23751.1
27373.2
5687.26
5328.87
3403.02
2088.92
5749.62
5561.39
3196.41
3266.03
3130.13
3174.22
3012.16
2440.16
3707.5
3601.73
11930.1
4564.08
4729.78
4023.31
4449.56
11717
3000.37
11902.4
11820.5
11611.1
11837.9
3075.51
3122.74
11832.2
12060.6
11300.3
11533.8
3003.13
2650.01
3221.96
7762.3
7961.93
3370.84
8848.8
8255.36
8274.4
9781.08
9525.49
17780.4
13780.7
8920.29
14046.4
15272.5
7266.33
9710.97
8385.93
8453.97
7612.99
7923.14
8917.13
2788.49
2560.71
4539.75
4852.4
2428.58
9472.03
8860.51
3775.68
3516.24
3263.94
4202
11925
12779.4
10931
11349.5
4490.86
1190.25
3168.31
6629.58
6112.64
3263.89
6977.87
3026.52
9121.28
9352.3
10763.1
7332.52
8153.61
8400.77
5806.91
15816.2
15485.3
12933.4
13812.6
5398.85
2577.05
2362.58
4406.4
4894.95
4362.25
6266.81
5621.64
5189.64
1602.97
1622.97
427.703
377.386
1199.58
2888.92
3136.81
3208.01
359.178
164.977
1659.05
353.876
609.602
496.401
492.792
2923.75
926.448
951.564
859.361
912.58
2821.3
2533.34
982.773
2695.56
2681.37
811.605
587.788
10510.6
4292.56
4865.83
4234.57
4217.22
10330.4
3081.09
4042.34
1406.89
8896.63
7486
7706.98
5796.08
6722.95
8460.57
2940.47
3023.62
10166.1
5097.38
4396.25
652.318
3721.02
1744.31
1752.96
1735.35
6261.59
6235.22
5754.85
6012.63
2037.08
3049.17
3085.85
8002.13
7259.17
7021.07
7681.88
7515.16
8613.27
4094.29
6450.05
3168.08
619.669
5445.85
5437.96
4531.92
4531.66
4577.53
4576.37
4264.28
8520.45
9528.06
6059.01
7181.27
1411.89
3282.68
2047.68
3546.2
3472.43
2809.63
2742.06
2950.2
2865.06
12039.4
12093.6
12301.6
1681.65
465.799
1684.13
2241.21
1238.17
8891.36
8174.67
8353.62
9487.09
582.279
1088.43
4034.43
2209.5
596.362
4058.78
2080.49
2731.99
4007.71
1998.78
1761.27
868.846
5918.99
96.6634
243.942
2469.18
153.884
776.804
3384.64
596.754
2267.33
3482.06
1090.91
1221.39
834.22
875.383
1983.1
1266.9
2248.94
964.292
1328.89
970.452
1655.8
250.488
4867.55
134.468
159.077
4653.27
1631.95
1360.29
8637.67
2686.91
2113.8
3826.13
2610.88
2803.6
3805.32
4554.27
4926.38
3017.47
5907.99
4367.81
2079.7
11290.7
10799.1
3977.82
766.207
4397.94
6474.36
662.161
812.275
803.796
3285
2741.74
3124.9
10343.1
2585.91
3770.87
2852.87
7934.85
9506.69
1021.21
1620.26
2790.76
8500.25
8045.63
1823.48
1302.13
4520.63
340.386
4592.95
3015.21
11317.3
1435.6
3543.7
4009.12
4560
4973.23
12170.1
11425.9
11731.1
12039.4
11312.8
4266.8
3785.38
2098.28
10221.5
11043.7
2678.43
2641.36
4180.51
2757.1
7571.72
7595.89
8219.71
3143.51
2936.55
7305.17
2361.26
2500.8
5629.01
356.355
391.69
365.705
356.049
5889.27
422.553
343.513
5244.18
6014.9
400.377
392.43
378.715
399.574
5997.94
6442.65
375.255
369.357
388.696
376.865
6288.58
10167.7
9067.83
8945.13
8682.54
8850.18
10124.1
5078.55
941.388
5214.3
4380.29
1835.38
4823.05
7510.49
7182.3
2042.44
3224.73
782.424
968.308
3096.56
200.492
2687.8
2482.12
2800.39
3841.25
2825.41
2009.13
6068.95
6284.69
616.195
2768.08
647.698
1241.38
2241.64
2619.15
3146.92
1108.99
4133.05
3808.68
2771.99
1612.41
1261.38
3238.53
4987.93
1198.59
2294.59
2099.56
475.4
2725.29
476.092
352.259
347.276
1958.07
2134.94
2112.8
497.274
535.38
2295.01
2314.15
3213.62
3101.02
917.944
2381.21
769.853
838.627
654.884
744.777
2224.47
434.59
389.953
2774.61
895.659
492.659
948.332
938.021
3145.38
509.841
493.534
2364.62
2499.93
5940.88
5386.45
7213.72
6570.81
3341.99
3409.19
3282.81
3351.34
319.129
938.873
4844.94
2285.38
1094.39
1267.64
2502.05
4435.63
3821.96
1377.87
1406.9
1708.17
4033.43
502.505
3219.01
3123.79
2214.07
2015.49
2610.45
2295.4
1831.09
1775.66
1968.89
1860.13
10133.9
14721.8
13517.9
7716.04
3169.35
9319.23
10624.8
10580.7
13038.8
12765
12046.3
2867.13
2766.31
3290.66
13886
5151.29
12894.3
8161.67
8100.84
8349.01
2343.97
2213.56
2585.67
2654.38
4786.74
4556.11
3251.49
3644.97
3176.23
4160.69
5484.32
5071.78
7793.92
7684.09
8078.47
21975.6
22750.9
23049.1
36343.4
33534.6
37362.6
35395
33187.1
28396
4093.22
11841.7
15126.9
30989.1
28557.8
32384.7
1381.04
1666.71
1573.88
2517.75
2724.41
2574.17
25734.7
23764.4
25645.3
2978.93
2990.51
2419.82
2119.16
1573.29
998.099
132.279
317.799
2340.48
2427.53
2472.07
2908.51
2505.9
749.568
387.921
30838.1
30866.4
26033.9
10142.9
9974.05
9502.42
11339.1
10002.1
9268.27
10561.8
10616.8
9744.68
3762.77
3195.47
3022.34
1314.36
7211.26
8123.91
8252.14
1724.99
1057.47
973.209
684.703
527.335
1080.29
1458.4
368.538
669.963
11542.6
11655
13119.6
2101.64
1588.02
1640.44
1330.22
796.772
1693.61
1747.2
2204.84
4682.85
1201.68
4559.51
4450.25
4595.76
5606.3
9573.14
3335.15
8624.81
4003.27
7775.3
7458.32
6888.18
2605.5
2433.47
2614.17
19805.1
21638.2
20272.8
582.849
997.045
407.816
870.559
12730.2
14118.4
4833.93
1059.66
1899.01
999.132
10528.4
8443.57
8217.43
17835
17145.9
22162.2
1939.32
1987.97
1864.98
490.312
350.118
1539.35
1711.53
1797.84
13671.7
14265.9
15816.1
11554.1
12708.7
12477.2
271.703
2410.44
307.959
648.671
769.256
371.847
524.028
657.169
497.641
8098.65
10359.8
11171.7
515.173
427.248
2631.34
2605.73
2317.26
796.815
8181.68
7968.07
7886.47
17737.6
18499.2
18915.1
17086.2
18027.3
17046.2
4544.46
5168.8
5724.06
4097.6
4216.6
4173.55
13968.8
9407.51
9354.36
11128.2
9700.63
12583.9
9300.99
9347.06
11047.6
943.985
4379.76
4277.06
4146.96
2336.05
2320.82
2875.44
1006.45
8719.71
9496.78
10158.1
8184.17
1886.73
11217.4
10375.7
9568.13
8974.88
2379.15
2808.51
9982.68
2621.43
9863.85
10513.7
8900.09
2347.96
2203.21
2932.63
2978.41
29713.9
23456.8
24065.6
12818.2
12573.2
13283.7
12351.8
12762.4
12129.1
1785.81
5157.51
6174.97
5456.75
7443.02
8113.48
8323.9
6543.52
7653.27
5936.63
2498.75
3016.23
2324.2
2270.54
224.539
246.072
259.852
4093.04
2910.87
2532.49
12759
5043.58
13923.7
15720.9
13507.4
13150.6
14243.6
13890.1
16406.6
616.372
606.105
507.726
488.163
8310.13
8055.14
7968.35
2971.96
3485.15
3351.86
352.497
18963.9
18475
15032.4
5300.34
5602.55
4382.01
5540.09
5772.46
2032.81
17866.5
17943.7
20012.9
17253.5
14903.6
14589.2
15400.9
15133.9
17158.6
345.108
403.291
429.469
428.694
8008.39
7562.43
7462.73
2670.06
2414.01
2833.35
4417.16
4180.38
4936.19
4777.02
3256.64
3311.78
4961.09
5108.83
4252.33
4267.77
2648.37
3229.47
2837.44
1212
8881.03
9482.33
9059.77
5888.93
6663.35
6159.3
8552.22
8521.4
8746.08
8163.18
8283.61
8348.08
4284.17
5257.92
5438.87
909.745
430.564
388.165
3421.38
3288.62
3339.87
795.842
3009.62
2537.92
5378.03
5552.07
4853
6849.98
6686.73
7077.76
5875.76
6282.86
6415.25
2310.71
1115.15
1509.37
1499.19
3339.23
3462.47
1199.43
1619.36
6485.71
6777.99
6606.61
699.631
735.235
703.949
655.578
5510.55
6212.99
6008.35
9616.53
4221.99
8487.52
3940.03
3680.51
3987.43
1618.85
1452.61
1447.84
1769.68
1714
2290.65
2491.47
2093.58
6777.1
7209.37
7022.09
988.99
1271.7
1640.65
1956.47
7195.78
5917.38
4357.7
2860.77
2894.44
2947.15
2976.52
9775.79
10700.3
10717.8
1843.87
2217.54
3463.02
4095.81
3453.69
4164.14
3961.51
1620.05
5370.9
7054.19
6214.8
506.311
166.733
654.03
630.467
1442.84
1417.98
1439.27
1458.38
1532.35
1356.71
1769.69
2169.34
2044.94
2740.15
1680.13
9594.53
10437.7
11128.1
2927.73
1896.47
2924.4
3232.61
7510.1
6991.87
5701.23
7325.19
7767.04
8718.91
594.549
565.648
1371.81
804.988
472.331
3118.06
2600.1
2804.93
314.7
252.804
182.195
142.476
12953
11470.5
11050.8
1190.16
1271.61
1836.41
2221.09
1885.91
3034.15
1317.94
908.094
1077.45
2160.51
2151.1
565.984
583.035
1716.34
4099.52
3023.58
1214.29
1220.82
8583.66
9924.78
9229.01
5337.01
5103.47
5312.4
5091.15
4798.12
5013.81
1473.42
4712.66
1996.92
2155.99
1689.86
7784.65
3051.16
7619.41
1741.9
1646.88
1809.6
1386.19
1194.08
2094.02
7383.25
7147.35
7697.77
569.567
452.593
5446.35
2425.74
2965.76
3846.73
3814.65
1845.03
1815.64
2371.66
1402.09
7391.5
7313.27
3112
2833.6
2363.68
1798.05
10605.6
9237.46
10679.7
10649.7
9809.82
8914.19
10910.8
10488.8
11181.2
3710.2
4658.55
4392.89
3732.93
3850.04
2773.04
924.159
571.591
11502.5
10983.1
10008.5
12116.1
11598.4
11559
566.526
578.075
1545.37
1092.9
6523.94
7969.14
9553.33
5060.94
620.269
4121.06
9710.84
10697.5
10339.4
6882.35
4433.21
547.029
8469.26
7306.67
8787.58
4836.98
2059.51
4269.04
4787.51
5333.6
2675.31
8044.23
7242.15
7846.15
6404.53
7205.28
614.262
674.47
2542.74
2592.9
7151.35
7023.06
8114.47
2092.43
2659.02
2796.15
587.96
858.236
412.382
449.031
1149.49
1022.23
932.078
604.031
1304.7
1072.54
1134.17
934.164
6187.83
5839.21
5941.19
5146.79
5104.93
5482.46
4302.37
4728.76
4771.8
476.64
2489.95
513.647
901.136
856.17
544.98
557.258
913.731
927.773
1455.84
1408.89
1027.36
618.781
660.393
2185.38
2145.52
3460.38
3496.71
8019.12
7997.64
8167.15
471.919
471.627
333.455
435.471
1674.04
1629.99
1460.9
8152.92
7973.76
8092.31
7433.54
7753.15
7940.78
4659.12
4838.64
4324.17
3070.09
4302.74
4353.29
4502.51
17534.5
15976.9
19148.7
3559.26
7262.45
1503.78
2280.65
5266.67
2329.09
10374.1
11054.3
9655.25
5375.65
6671.79
2738.28
4091.29
2016.72
2135.27
1832.2
1925.37
2969.29
2572.39
2452.14
6716.73
6558.06
6478.8
5215.1
6140.08
6530.31
1859.71
1766.8
1709.08
1027.74
1189.71
1000.15
1633.15
1757.48
1742.93
1824.96
1790.15
1647.18
3442.97
3893.4
3895.89
3404.93
3285.72
3718.89
2520.91
1672.11
1410.85
2454.13
1094.48
4289.57
3760.99
4174.19
2985.21
3769.94
1522.35
2432.31
1945.34
3850.36
2637.54
2691.88
2478.99
2560.79
3759.3
474.699
2087.86
2032.5
2937.82
2978.25
3082.57
2793.28
1843.13
1882.73
1762.78
1803.45
2722.59
485.354
429.484
58.2904
1369.27
1340.57
1348
3213.62
244.645
967.099
413.416
1643.77
1523.05
1208.05
485.719
480.852
404.158
2555.93
3016.19
734.968
762.497
427.284
404.384
4925.32
3375.37
10026.3
2417.93
2663.85
861.638
4768.07
4918.72
5115.82
3110.04
2399.16
2401.22
2386.94
2394.62
3062.55
632.031
662.123
5820.37
6042.3
4303.75
3119.9
2398.1
2390.18
2402.67
2402.02
3132.21
3482.74
3323.99
3969.19
2302.94
2291.25
2206.78
2311
1239.4
1079.34
1102.23
1707.68
441.721
465.656
393.035
413.171
573.711
344.197
343.624
857.417
436.736
1522.06
1122.88
792.902
1491.56
196.701
537.237
501.243
164.775
403.293
298.141
1025.82
772.5
781.212
1474.05
1533.55
2076.71
2266.88
1788.71
1752.23
1631.98
1771.55
1811.25
1377.72
1633.4
1524.47
2729.68
3517.47
3161.75
3489.2
3553.39
2802.98
1584
1585.61
1426.21
1488.96
2413.77
1815.39
1227.96
1268.54
1244.4
1161.6
1435.12
2171.07
2619.57
2453.45
1927.26
954.557
3522.81
2421.94
2244.29
2656.84
2573.87
3736.95
4366.95
4914.17
3477.61
2944.57
2599.16
3956.06
2943.72
1214.17
2099.12
2143.24
427.53
1497.75
1297.52
2513.56
1979.65
1371.72
2638.4
2408.57
3261.05
789.616
643.584
561.984
1372.38
2783.95
1754.63
1856.88
2050.72
1886.45
2986.45
2603.3
2325.22
1522.4
106.604
129.627
1960.83
2133.74
2029.97
561.462
503.377
688.522
329.47
385.364
169.816
1719.44
1795.58
801.222
1325.05
880.738
848.649
1451.05
1574.75
1420.28
2988.96
3412.74
3058.58
2544.84
2985.94
1966.24
1403.19
1439.64
1278.1
1354.87
1881.69
540.034
2760.62
348.905
329.923
691.715
693.744
555.921
664.361
301.503
678.42
959.801
114.535
486.176
840.182
868.445
1095.27
896.881
674.619
461.223
453.232
321.67
437.708
408.249
478.632
1753.77
3873.84
1121.89
9530.79
9109.34
7942.96
600.397
3042.75
1997.41
2033.89
1921.31
1960.41
2990.03
1711.31
7529.06
3105.9
2791.95
2541.41
3018.21
2860
1766.82
533.151
512.353
554.709
468.784
1888.51
1140.01
609.798
983.822
441.628
449.135
1149.97
4016.08
4265.46
4358.72
2529.08
2298.56
2305.51
2491.44
933.603
1163.72
1834.25
1333.74
3287.61
2804.34
3428.33
546.99
3530
4435.01
2500.15
2811.37
9304.44
8949.09
7432.48
10565.8
10057.2
10243.4
530.21
3063.95
3109.55
498.676
10158.7
1775.45
6239.67
1726.17
1565.31
3484.36
2756.14
2435.81
4041.2
3595.86
4080.52
3108.2
2941.03
4700.64
4358.22
4393.86
4599.27
4204.9
4148.91
4356.52
4279.77
4654.79
3057.35
3086.67
4482.66
2998.84
12163.8
4839.39
2638.23
8176.21
7038.54
5980.09
2984.34
1045.36
1056.74
1016.4
1032.54
2981.34
2950.68
1087.67
1110.97
1066.03
1075.45
2962.47
9923.08
10091
8268.74
7077.92
8636.84
9365.26
4220.87
2386.85
2377.82
3016.12
1846.11
1804.04
1763.32
1814.11
250.316
513.517
4700.93
4847.29
4261.01
6168.55
5781.61
6088.36
587.806
671.051
514.452
3607.78
3294.11
4168.62
1103.65
721.271
889.67
1028.43
2422.67
2868.71
1477.12
3369.34
827.845
918.995
588.599
564.59
3527.55
3070.43
3008.85
3183.4
3106.15
3524.69
3432.96
2849.41
2737.72
2997.42
2871.42
3427.89
540.683
533.739
1379.62
1349.96
1379.06
1527
1571.66
1201.3
1232.02
1283.09
1451.16
1821.9
2039.54
1740.48
1747.78
1518.76
852.767
1138.49
960.375
286.147
250.824
332.526
345.469
2303.55
2374.76
2204.75
371.431
407.509
3220.83
2710.37
2717.75
2689.94
2695.95
3238.79
3133.08
2725.88
2746.33
2722.61
2727
3151.08
390.98
417.167
2829.91
2426.07
3728.09
3680.41
4663.25
5136.43
5059.03
5183.13
5196.83
4731.24
4192.44
4743.4
4603.78
4958.98
4862.26
4327.75
4592.35
4550.98
2924.04
3147.09
4671.58
4626.14
4749.03
4840.66
3214.33
2823.84
4458.83
4624.61
2740.8
2863.87
3586.62
3766.6
3676.51
1519.2
2814.91
2841.2
6742.33
7181.94
7595.83
932.8
931.655
910.415
942.673
855.287
791.423
917.847
898.508
1043.52
1094.19
913.304
870.283
1111.86
1061.6
1267.5
1295.87
3005.55
1497.89
1002.97
2268.74
766.416
4058.46
4063.89
4377.97
3410.82
2345.29
2411.78
2234.3
2288.37
3326.45
4932.31
5002.64
3933.45
4465.5
4794.55
4901.88
773.407
3302.51
3271.67
3310.8
3183.19
3063.12
3052.63
2805.94
3245.35
3276.79
6658.82
6643.28
5955.57
5106.16
5857.74
6070.77
2504.5
1682.79
1722.83
1604.79
1643.71
2433.34
2106.38
431.213
610.447
591.312
586.313
574.422
376.25
1448.46
1502.11
1154.88
3235.59
312.861
235.951
445.91
566.477
503.142
729.126
657.491
544.7
494.576
495.157
938.877
1131.19
1111.43
1153.22
1140.71
947.746
878.863
1050.94
1025.47
1094.36
1072.46
896.999
730.308
312.428
642.629
672.538
814.235
762.31
4435.54
4892.62
4765.57
5292.99
5115.27
4612.66
4180.35
4657.54
4698.52
4684.02
4646.24
4171.35
3232.29
3024.16
2724.97
4327.75
3868.23
3717.74
1192.61
1560.65
2947.24
2408.54
2386.82
2581.24
2471.46
2970.84
4896.74
5256.26
5315.6
4872.39
5064.47
4632.65
2457.88
1952.12
518.98
2767.11
3784.2
3402.46
2967.06
1700.65
1695.65
2304.61
2005.16
1519.26
2169.7
2611.88
2507.78
3046.73
2370.4
2413.67
2378.33
2363.93
3064.64
3333.32
2568.25
2507.93
2615.59
2904.21
3112.24
1128.85
1219.59
863.126
2868.11
2852.77
4517.35
4065.05
4088.49
4103.63
4067.26
4515.82
4631.81
4234.07
4200.78
4133.91
4190.83
4605.84
2930.53
2900.52
925.425
923.945
2016.35
1711.45
4150.27
3088.62
3357.63
4167.51
4389.4
3630.68
3682.4
1439.18
640.399
556.265
2960.26
2950.29
3113.03
2034.22
2681.4
2705.39
3541.44
3226.22
3205.56
3201.58
3223.78
3514.17
664.857
630.396
2780.32
921.299
938.259
917.283
912.057
2721.05
2924.73
983.141
999.647
950.593
968.084
2895.9
511.458
510.18
485.15
501.52
1638.17
1069.68
1036.46
887.855
835.792
536.175
500.55
936.972
1689.38
1519.29
1658.69
998.273
1306.29
2488.02
1836.44
1549.16
1499.09
3783.47
3679.01
3444.57
3666.43
701.619
655.479
633.094
735.188
665.622
934.009
525.745
485.867
630.482
748.531
738.817
211.816
311.311
3953.48
2702.17
2803.5
567.944
2724.18
3661.66
3648.11
2766.02
2482.55
2758.24
2766.45
3932.05
158.39
190.404