/*--------------------------------*- C++ -*----------------------------------*\
  =========                 |
  \\      /  F ield         | OpenFOAM: The Open Source CFD Toolbox
   \\    /   O peration     | Website:  https://openfoam.org
    \\  /    A nd           | Version:  dev
     \\/     M anipulation  |
\*---------------------------------------------------------------------------*/
FoamFile
{
    format      ascii;
    class       volScalarField;
    location    "1500";
    object      yPlus;
}
// * * * * * * * * * * * * * * * * * * * * * * * * * * * * * * * * * * * * * //

dimensions      [0 0 0 0 0 0 0];

internalField   uniform 0;

boundaryField
{
    inlet
    {
        type            calculated;
        value           uniform 0;
    }
    outlet
    {
        type            calculated;
        value           uniform 0;
    }
    ground
    {
        type            calculated;
        value           nonuniform List<scalar> 
5358
(
44566.7
44567.8
44567.9
44568
44568
44568.2
44568.3
44568.5
44568.8
44568.8
44568.8
44568.5
44568.3
44567.9
44567.7
44567.5
44567.4
44567.3
44567
44567.1
44567.4
44567.5
44567.5
44567.6
44567.6
44567.7
44566.4
44566.6
44566.7
44566.6
44566.5
44566.4
44566.4
44565.3
48110.8
48109.4
48109.3
48109.2
48109.1
48108.9
48108.3
48108.9
48108.5
48108.1
48107.8
48107.3
48106.5
48106
48106
48105.7
48105.1
48105
48105.6
48105.7
48105.6
48106
48106.6
48106.2
48106.9
48107.4
48106.7
48107.6
48107.5
48107.7
48107.9
48108
48108.1
48109.3
50579.1
50577.5
50577.5
50577.4
50577.4
50577
50577.3
50578.1
50577.9
50577.8
50578
50578.2
50578.4
50578.7
50578.6
50578.5
50578.6
50578.5
50578.2
50577.8
50577.6
50577.5
50577.5
50576.6
50576.8
50577.8
50576.2
50576.5
50576.1
50576.4
50576.5
50576.7
50576.6
50578.4
51870.3
51867.6
51867.1
51867.4
51867.5
51867.1
51867.9
51867.8
51867.7
51867.8
51867.7
51868.2
51868.3
51867.9
51867.8
51867.3
51866.8
51866.8
51867.1
51866.6
51866.8
51867.6
51867.8
51867.7
51867.6
51868
51867.1
51867.5
51866
51867.1
51866.6
51866.7
51867.1
51869.8
52383.7
52380.1
52377.9
52377.5
52377.3
52376.1
52376
52374.1
52373.3
52371.3
52369
52365.1
52362.4
52360.2
52358.6
52357.1
52355.4
52355.7
52357.4
52361.1
52363.4
52364.8
52366.6
52368.8
52371.2
52372.7
52373.5
52375.5
52375.9
52377.6
52376.7
52377.4
52379.3
52382.6
52437.1
52433.1
52428.4
52426.5
52426.1
52422.6
52418.9
52413.7
52408.3
52400.7
52393.3
52384.8
52374.7
52364.4
52358.9
52353.8
52351
52353.4
52359.1
52365.7
52373.7
52382.4
52389.9
52397.2
52403.4
52409.1
52413.4
52417.8
52421.5
52424.6
52425.3
52426.4
52431.2
52435
52230.5
52225.4
52218.8
52214
52211.1
52204.2
52195.8
52185.2
52173
52158.4
52139.5
52115.3
52092.3
52068.6
52050.2
52039.2
52035.3
52042
52055.6
52075.8
52095.1
52111.5
52128.6
52144.2
52159.8
52172.8
52183.2
52193.2
52201.6
52207.5
52211.4
52214.8
52222
52225.6
51885.1
51880.2
51870.6
51861.7
51854.4
51843.6
51828.5
51809.3
51785
51754.6
51719.9
51680
51627.7
51573.1
51533.4
51511.5
51508.3
51523.5
51550.8
51587.2
51627.3
51665.5
51700.2
51731.4
51759.7
51784.5
51805.8
51823.1
51838.1
51848.6
51855.2
51862.7
51872.6
51877.5
51474.7
51468.9
51455.8
51443
51429.7
51413.2
51390
51358.9
51322.2
51275.7
51211.6
51129
51051.7
50981.5
50925.4
50894
50890.2
50910.6
50948.2
50996.1
51047
51103
51162.8
51219.4
51269.1
51312.7
51348.1
51377.5
51402
51419.4
51430.6
51443.5
51456
51462.5
51042.6
51034.8
51020.3
51001.7
50981.7
50955.8
50924.2
50879.1
50820.1
50746.6
50668
50571.7
50460.9
50350.3
50256.9
50205.2
50197.9
50226
50286.4
50360.3
50438
50516.1
50591
50659
50725.4
50794.8
50857.8
50903.9
50938.1
50963.6
50981.4
51000.4
51016.3
51024.3
50613.7
50604.6
50588.2
50565
50537.5
50501.4
50454.3
50396.8
50329.2
50258.2
50169.6
50049.7
49896.4
49734.5
49588.4
49488
49443.4
49463.5
49555.4
49667.3
49788.1
49902.9
50009.4
50104.7
50189.2
50267.8
50346.1
50418.6
50470
50505.8
50534.5
50559.4
50578.9
50588.6
50203.1
50193
50174.6
50148.2
50113.6
50068.1
50009.4
49954.5
49892.3
49827
49768
49801
23294.6
22958.4
22474.3
22126.6
22162.4
22505.5
22743.8
22922
23091.7
23259.6
23409.6
23536.9
23640.5
23724.5
49897.8
49954.9
50014.8
50065.7
50104.8
50135.7
50159.2
50170.5
49818.4
49808
49788.2
49759.3
49719.5
49667.9
49617.3
49566.2
49514.7
49488.5
49581.1
50216.3
22463.1
23844.7
10203.7
9701.73
7449.8
11233.3
21104.5
21133.2
21396.9
21705.8
21953.3
22160.1
22320.4
22442
49529.7
49543
49599.9
49654
49702.1
49739
49765.8
49778.8
49463.7
49453.2
49432.6
49402.6
49360
49314.7
49270.4
49223.1
49186.5
49215.5
49519.8
50932.8
24438.9
32383.1
9530.94
7117.43
9533.42
25289.8
21811.1
21107.2
21557.1
21851.6
22046.9
22185.8
49233.5
49182.4
49235
49286.6
49333.9
49374.6
49403.5
49417.9
49140
49128.8
49109.1
49078.8
49038.9
49000.5
48957.9
48910.5
48880.9
48933.7
49362.1
51272.3
25301.2
13553.2
22173.1
12211.6
12575.8
3402.22
12991.4
13840.9
36725
23562.6
21863.4
22035.2
22202.5
48982.5
48872.3
48915.2
48965.8
49008.4
49045.4
49074.3
49089.7
48845.5
48834.4
48816.1
48786.8
48752.7
48716.8
48671
48618.3
48578.4
48608.9
49070.9
51378.2
26101.8
8289.61
2310.77
3434.58
5246.11
3790.51
2535.17
4986.46
3962.19
33527.1
25983.5
22574
22109.9
22250.2
48745.8
48605.3
48637.5
48684.4
48723.6
48754.3
48778.6
48794
48577.8
48567.8
48551
48523.8
48493.8
48457
48406.3
48344.3
48280.3
48266.6
48797.5
51691.9
27186.7
8096.48
27333.9
27844.7
22311.3
42263.7
31147.6
22825.2
22394.5
22305.6
48495.2
48365.9
48392.1
48434.8
48472
48497
48515.9
48528.5
48333.9
48324.7
48309.9
48285.5
48257.4
48218.3
48162.7
48089.6
47995.9
47951.1
48637.1
52125.4
28089.7
15763.4
13340.5
17291.8
9199.46
35409.6
29561.5
22860.9
22383.6
22375.9
48227.5
48136.5
48168.1
48208.7
48244.1
48266.6
48280.7
48290.2
48110.4
48101.5
48089.1
48066.5
48037.8
47996.1
47935.9
47851.2
47724.8
47647.2
48413.2
51963.2
27924.7
27091.4
1431.43
2171.96
19682.2
31415.6
17820.3
29291.5
27005.6
21869.3
22209.9
22442.9
47950.2
47906.2
47953.7
47998.4
48033.5
48053.7
48065
48073.7
47901.8
47894.5
47883.5
47860.4
47830.1
47785.4
47719.1
47620.1
47452.8
47316.2
48039.6
51274.9
27268.9
25205.1
6208.4
2229.26
1329.88
2303.4
2504.61
27499.2
27393.6
21882.9
22485.9
22480.4
47663.3
47674
47744
47795.1
47832.7
47852.9
47865.5
47873.6
47705.8
47698.4
47686.6
47663.4
47629.2
47579.7
47504.3
47387.5
47171.1
46945.4
47527
50271.4
26305.3
24168.9
16683.2
2219.79
1881.16
7200.36
19646.6
24410.3
34104
29099.6
22512
23673
22488.7
47368.7
47440.7
47537
47595.6
47637.3
47662.3
47676.1
47685.3
47518.9
47510.9
47498.6
47474.8
47434.7
47376.6
47290.4
47152.6
46883
46543.2
46917
49144.1
25255.4
23480.6
17108.4
12600.8
14061.5
13674.8
17360.8
16675.2
26542.6
35540.5
29753.7
23432.1
25370.5
22444.1
47074.6
47211.1
47333
47401.1
47449.3
47479.1
47494.6
47504.7
47337.8
47329.6
47316.1
47291.3
47246.9
47177.8
47076.4
46916.8
46596.9
46135.2
46268
48024.6
53236.3
50885
49743.8
43928.8
40735.8
36913.4
32192.5
49378.8
66807
76399
64840.9
60671.5
55515.8
47207.8
46808.9
46996.4
47140.8
47215.6
47268.5
47300.3
47317.8
47328.6
47161.3
47152.6
47138.1
47111.5
47063.5
46985.3
46868.1
46679
46311.6
45739.8
45650.2
46871.6
51939
51662.2
53394.2
52108.3
47516.2
42342.2
40428.6
51693.4
64089.2
71154.1
62274.2
59202.6
54388.7
46865
46576.3
46802
46955.7
47035
47091
47125.2
47144.3
47155.2
46988.2
46978.9
46964
46936.6
46884.8
46800.8
46669.4
46451.8
46037.6
45368.1
45072.7
45737.7
50522.1
52057.4
55613
56235.1
51964.5
45404.9
44267.5
53797.7
62879.7
67589.4
61615.9
59067.5
53480.6
46614.6
46358.5
46614.2
46772.5
46857.6
46915.8
46951.8
46971.4
46983.3
46817.3
46807.9
46791.9
46762.9
46707.9
46617.8
46474.4
46233.6
45776.1
45023
44543.8
44690.1
49129.5
51587.7
56292
58545.2
54460
46974.4
45565.9
55065.3
62302.7
65158.4
61487
58775.7
52703.6
46418.5
46154.6
46430.8
46591.4
46680.8
46742.1
46779.8
46799.9
46812.4
46650
46639.9
46622.7
46591.6
46532.6
46436.9
46284.8
46023.8
45530.9
44709.5
44069.8
43756.8
47826.8
50353.7
56008.9
59961.1
56383.8
48245.5
45363.7
55778.7
61977.4
63461.1
61235.8
58214.9
52029.7
46255.1
45966.5
46252.4
46413.8
46506
46569.8
46609.1
46630.4
46643.6
46485.1
46474.8
46456.2
46422.6
46360.9
46260.6
46101.6
45824.9
45305.8
44432
43656.3
42949.9
46645.5
48706.9
55424.9
60724.1
57487.8
48858.5
45404.8
56181.4
61725.4
62246.6
60742
57506.6
51440.9
46113.5
45794.1
46080.8
46239.8
46334
46400.2
46440.9
46463.5
46476.8
46325.5
46314.7
46294.7
46258.9
46195.2
46091.9
45928.4
45641
45102.7
44192.4
43304
42267.5
45585.3
47050.3
54940
61110
57932.2
49125.3
45386.1
56300.2
61448.4
61306.2
60071.6
56744
50919.3
45986.8
45637.8
45919.7
46074.3
46169.1
46235.2
46277.4
46301.9
46315.2
46167.9
46156.8
46135.8
46098.3
46033.5
45928.8
45762.2
45470.5
44921.8
43988.5
43009.8
41705.7
44667.8
45623.4
54854.1
61471.7
58266.6
49393.8
45547.4
56333.5
61212.3
60569.4
59347.5
56001.1
50456.1
45873.2
45498.1
45767.9
45914.7
46008.8
46074.4
46116.7
46141.6
46155.2
46023.2
46012
45990.2
45951.9
45886.7
45782.3
45615
45321.7
44768.7
43821.2
42771.4
41248.3
43862.5
44458.7
54724.7
61398.9
58131.2
49328.6
45420
55997.2
60759.1
59803.3
58509.3
55235
50024.6
45773.1
45379.2
45635
45772.6
45864.8
45928
45970.4
45995.6
46008.9
45873.7
45862.7
45840.8
45802.5
45738
45635.4
45470.2
45180.3
44631.7
43683.1
42581.3
40909.1
43209.7
43954.7
55442.2
62085.2
58909
49844.4
45974.7
56247.5
60642.9
59307.6
57859.9
54593.3
49644.1
45679.2
45271
45507.5
45631.9
45719.5
45779.5
45820
45844.6
45857.3
9798.06
9806.73
6555.66
23207.5
16839.8
11153.8
23455.4
9644.3
3673.22
16852.4
1401.16
7842.32
12197.4
1790.97
1105.27
1383.34
2883
26172.4
5726.63
888.865
13255
1824.8
4111.36
22776.3
14080.1
1839.81
3661.01
4747.32
9529.3
3041.3
26779.9
4207.53
9768.74
3376.11
7389.34
19529
3087.49
8821.39
20589.5
28596.1
8410.69
3119.99
21977.5
46792.9
18741.7
16109.2
440.007
1086.85
11720.2
695.678
10185.2
10465.4
9563.64
21567.4
12909.9
1797.37
19911.1
429.297
2570.77
3835.66
1690.06
5262.39
15096.9
12002.3
1497.33
322.836
2194.65
1607.69
219.36
440.318
7071.64
7064.84
8576.81
8082.02
12042.9
28655
8481.57
482.553
15694.1
6128.25
451.565
14101.3
15922.5
3901.08
8643.85
5700.61
12049.5
16389.6
659.473
8121.44
13815.1
18128.6
16157.8
5393.12
4002.52
22052.3
10071.3
21665
22289.6
9905.09
11302.7
13158.8
5060.32
21460.4
13965.4
10652.9
21057
21153.5
12944.7
20004.1
34958.5
13913.4
718.678
7659.47
4307.42
2884.64
1307.35
5956.92
9402.1
11159.3
9506.06
2389.37
8267.87
1515.72
25298.4
29879
24098.4
20929.1
39400
29186.2
13159.8
14094.6
25726.5
12131.8
1285.17
4698.42
12232.8
8394
4952.95
1873.3
2980.65
304.571
13317.1
3876.64
13512.2
8013.08
27750.8
26915.2
31637
14722.7
16518.9
26595.6
8193.81
11908.4
3823.67
3675.99
12772
58665.9
25452.8
4310.93
16876.3
18326
3806.13
5630.02
4537.39
14529.9
40890.8
20021.3
16825.1
16653.4
27752
7887.23
2294.44
2423.81
11960.8
11366.3
28850.2
2770.01
3427.66
10939
3485.68
2776.5
7427.87
9181.69
1975.02
22872
8609.73
11567.6
4821.78
29227.9
13947.4
9797.33
7947.4
2822.88
2245.2
3646.94
4121.71
8803.42
22736.8
8796.16
8244.24
4193.65
4394.76
25973.2
1062.11
20867.8
3305.86
2440.97
22914.8
4241.76
3431.68
38633.6
13300.9
4643.71
7348.27
6139.62
4422.06
5877.69
13163.9
2242.26
1762.28
7933.92
6570.99
1020.66
3391.05
1794.28
3848.98
3109.32
2673.16
6181.46
15461.8
18291.6
2998.41
6386.98
7882.96
2695.55
10786
10326.9
5263.81
12503.8
8933.65
5860.7
10303.9
7050.67
4164.75
1493.61
851.512
22208.8
1246.54
1859
7452.36
8889.33
24212.9
7152.9
1551.26
7509.67
23438.8
9757.37
2666.48
623.627
13496.5
2185.14
5733.1
12184.8
1247.49
1125.23
1622.83
2859.45
1577.28
10357.7
105.264
12115
1476.56
9087.95
643.964
2546.17
12927.8
1656.21
3513.95
1484.84
5992.2
16266.4
14724.4
6488.32
5332.56
3187.48
4544.69
4506.61
2782.24
3201.54
1926.23
5773.55
4408.63
7480.28
3344.42
13733.1
4178.44
4275.9
7238.58
1104.53
23891.8
7884.14
4469.71
12943.3
5453.86
4075.75
3786.13
1692.81
7758.77
1793.03
1934.53
1978.65
3001.76
7799.61
1554.43
10966.9
2991.69
2160.42
6035.81
2565.06
21701.2
2235.34
5266.95
3660.98
11791.7
9631.23
11373.5
3326.21
2344.3
29293.2
10578.3
3607.12
9549.74
8639.92
8042.9
7258.07
5509.82
6196.9
6422.01
5452.78
22738.4
22872
9080.87
6037.59
5732.31
6354.62
6134.31
5489.91
21844.2
8924.3
9630.06
9944.88
14884.9
4859.53
3203.53
2603.65
4803.7
1316.69
6656.23
8546.5
7622.7
15378
13293.1
3626.41
2968.18
9396.07
7239.03
9604.01
22908.7
5311.65
12162
13714
15190.3
2405.4
7906.27
15078.4
8153.56
2262.94
769.09
2382.79
918.646
1147.07
2197.31
609.132
3489.12
12442.1
1284.44
6557.21
4234.29
5739.77
4629.87
475.055
2269.45
485.341
1950.07
576.379
6165.15
8436.68
6063.64
5750.68
591.931
1001.11
5572.8
6030.65
2528.28
2051.88
2506.15
3126.2
7143.1
7021.37
2691.37
13697
8167.55
3774.78
3948.04
1107.97
3687.28
8208.81
7687.62
4413.2
3469.28
4394.56
22296.4
21632
21834.5
26176.7
20419.1
29966.2
10308.3
10722.4
13029
7080.56
9058.9
7936.62
9093.92
6085.03
5871.29
26682.9
10218.4
3427.95
12270.8
12434.5
12348.8
11361
5440.61
2854.44
14239.6
6115.95
5038.06
5078.72
4261.95
1436.27
659.074
1611.45
1545.67
6811.38
17408.4
16282.2
6726.02
7844.01
2565.91
5881.92
15546.9
14589.1
3484.08
3103.15
3660.62
2601.63
4401.3
4287.45
17827.7
16060.9
18212.8
1201.34
8443.48
10099.7
3860.33
3643.85
4103.96
7443.06
6276.79
3104.24
15295.8
12524
15680.5
2876.01
2675.1
9602.01
21679.2
24631.2
3682.18
4787.51
5403.2
1049.2
332.143
1441.1
3476.56
3302.82
1051.83
3206.53
99.0032
1392.96
497.918
483.358
4247.15
9190.12
2539.98
6324.84
6470.75
7637.21
2872.44
1155.58
15868.4
14553.1
17556.4
22032
21833.8
17818.9
15910.3
16219.4
9996.24
550.507
387.862
8620.47
10600.4
4566.24
7599.42
5710.75
3130.46
3007.58
442.926
703.922
15400.1
3721.48
20087.1
3103.87
3134.61
4187.94
1258.97
11840.9
11952.1
12038.1
1690.31
443.039
1540.78
1809.23
693.026
901.051
2625.51
1933.53
19857
9201.93
27077.1
2018.56
1497.82
1019.94
3487.9
2374.45
2762.82
9654.66
3050.26
4194.94
3567.76
3667.76
2853.24
1282.5
3603.89
8763.63
1847.55
1480.14
3333.09
3834.5
23168.5
24282
21133.3
3590.47
9410
2109.97
4510.55
2496.21
1509.41
1642.33
3687.91
721.306
1589.41
2654.69
3098.27
1730.63
6450.05
4425.53
124.285
9417.24
8378.33
9660.18
5238.48
5569.7
1990.14
21372.9
19298.1
17487.2
755.661
2663.36
238.341
1094.68
1722.51
1358.71
3898.46
4436.46
5687.15
3111.36
2107.99
1833.85
426.041
2529.67
408.05
2168.98
386.023
230.282
437.191
2836.83
3895.92
2324.91
2409.87
545.007
784.028
2519.35
2138.41
476.776
451.706
6244.59
5541.28
6355.45
7641.41
4701.56
5151.97
211.24
516.692
8802.29
8277.63
7792.5
7167.52
7867.31
8701.77
2081.51
2013.04
6440.85
6592.37
6316.46
8190.63
4116.72
17035.8
7768.74
17293.9
10676.6
8635.34
8737.15
282.659
3084.29
2936.96
9725.33
9565.8
9541.41
9621.69
9653.27
10739
5974.74
6513.01
5812.44
18464.3
17086.9
17675.4
1619.08
2105.58
1376.68
1348.85
8295.57
6209.53
5249.54
4190.14
554.321
3811.37
367.948
9904.46
16820.6
10161.7
8863.02
2814.49
4443.66
4742.51
10286.6
4577.88
4707.16
12685.5
20188.5
28251.7
22652.2
20132.6
26677.8
4024.93
12090.5
5514.43
3734.19
7524.73
8908.09
6202.55
12441.9
12489.4
12304.1
2986.86
2972.41
2957.33
2975.28
8321.19
12391.3
22064.7
8169.45
11193.6
7877.91
4997.61
8000.27
2976.69
179.293
220.654
3538.83
6336.12
14118.7
840.81
863.22
4344.51
752.621
843.192
4832.32
395.954
929.238
3430.8
3503.3
3313.92
3468.38
1625.68
1218.78
1471.76
1604.11
600.283
393.837
120.78
286.078
410.247
21804.8
23739.9
27242.4
6000.26
5674.38
3611.44
2103.14
5598.48
5399.32
3196.89
3265.39
3127.94
3174.49
2917.53
2426.05
3683.2
3577.32
11817.7
4532.42
4697.41
3987.06
4417.51
11605.1
2991.88
11812
11757
11494.1
11727.7
3064.89
3127.52
11775.9
11995.4
11223.7
11478.5
3010.88
2649.34
3220.03
7735.89
7943.9
3372.46
8815.5
8231.36
8250.12
9756.08
9499.12
18076.7
14264.5
8986.92
14474
15634.2
7294.05
9838.8
8440.1
8547.62
7629.57
7941.86
8991.78
2813.53
2536.03
4623.4
5081.91
2427.44
9485.35
8870.71
3776.57
3521.3
3262.06
4286.75
12359.4
13224.7
11044.1
11657.8
4616.67
1231.78
3066.89
6779.07
6241.4
3246.25
7138.09
2957.01
9144.26
9488.95
10963.1
7514.13
8392.25
8489.9
5820.24
15873.6
15511
13139.6
13985.4
5437.73
2607.53
2408.97
4667.82
5053.62
4096.66
6312.02
5726.43
5380.34
1540.8
1671.44
407.355
346.571
1065.13
2861.91
2835.21
3202.05
362.298
163.941
1647.98
351.174
605.809
503.956
500.698
2947.72
964.847
1010.89
877.81
945.011
2830.45
2698.1
987.046
2754.31
2724.29
813.195
589.289
10518.4
4294.33
4869.01
4235.28
4218.76
10337
3082.29
4046.12
1407.13
8894.97
7484.97
7705.14
5798.66
6723.26
8460.81
2940.31
3024.42
10171.1
5097.1
4396.74
652.155
3720.15
1738.7
1747.84
1663.67
6221.04
6197.56
5722.82
5972.68
1981.22
3049.5
3084.62
8003.17
7259.21
7023.94
7679.92
7513.72
8611.83
4091.11
6409.15
3169.07
618.041
5441.55
5421.35
4540.47
4540.79
4586.91
4585.09
4281.11
8249.91
9519.07
5677.19
6751.71
1427.08
3271.46
2113.11
3487.01
3437.29
2812.92
2747.52
2954.72
2868
12053.4
12106.3
12323.8
1680.04
450.475
1560.34
2260.09
1156.24
8860.3
8131.77
8331.04
9459.93
538.289
1001.63
3986.01
2128.57
489.681
4073.55
2091.9
2730.4
4018.28
1918.99
1755.56
842.291
5915.2
91.8514
269.12
3429.85
132.398
766.335
3485.93
596.318
3832.06
3402.31
1056.67
1213.45
791.627
875.417
2291.65
1183.27
2539.54
937.313
1472.01
1041.03
1650.88
249.411
4864.37
149.337
158.833
4634.82
1600.58
1462.46
8621.24
2679.13
2108.38
4824.06
4676.96
2993.44
4037.47
5235.51
5426.15
3149.78
6100.13
4415.26
2295.76
11297.9
10845.8
3945.61
760.765
4386.37
6282
646.054
781.144
773.869
3254.05
2739.87
3123.08
10266.5
2559.21
3734.3
2743.53
7872.25
9451.6
1013.49
1599.46
2718.03
8455.79
8001.3
1807.62
1292.43
4500.19
337.683
4561.31
2992.45
11202.7
1426.04
3520.88
4027.25
4523.76
4958.88
12107
11337.3
11712.9
12068
11404.9
4297.73
3919.13
2117.75
10164.2
10981.9
2676.56
2632.28
4173.87
2754.28
7586.92
7610.01
8229.01
3147.34
2940.43
7305.98
2356.71
2498.09
5640.22
367.324
397.861
371.78
366.376
5903.45
426.131
347.759
5223.01
6007.77
401.631
394.942
378.328
400.467
5994.58
6427.31
379.6
374.971
391.589
380.96
6270.89
10299
9184.56
9090.75
8782.73
8923.73
10257.7
5148.15
862.138
5296.82
4414.88
1835.6
4865.9
7469
7016.95
1962.4
3185.97
596.632
690.505
3036.75
129.756
2674.34
2467.3
2782.22
3845.95
2818.06
1992.7
6041.77
6177.85
600.218
2562.71
631.174
1327.07
2001.71
2915.42
3343.17
1168.97
4143.78
3892.06
2991.63
1801.94
1415.38
3146.6
4947.42
1178.28
2346.76
2167.27
435.185
2471.96
452.535
336.601
340.2
2058.88
2213.36
2151.91
508.403
571.961
2415.78
2411.85
2886.2
2820.4
876.28
2377.71
776.561
853.548
652.388
749.433
2218.8
441.405
394.289
2952.48
988.055
531.497
1016.04
1032.6
3286.8
527.372
501.307
2408.94
2634.73
5954.36
5391.35
7234.7
6589.58
3334.65
3383.46
3281.04
3343.78
333.222
1021.84
4102.71
2045.92
1044.66
1196.76
2262.09
4293.02
3430.82
1253.12
1313
1556.81
3637.85
509.467
3214.59
3118.62
2206.66
2022.8
2614.98
2283.04
1849.22
1800.09
1979.52
1876.46
10138.3
14722.6
13518.2
7723.44
3173.87
9341.02
10648.2
10602.9
13065.8
12797.1
12056.5
2882.92
2781.41
3304.59
13881.7
5157.5
12890.9
8085.02
7991.9
8319.87
2319.58
2181.12
2470.88
2960.51
5157.01
4899.6
2340.96
2588.41
2191.07
4449.68
5668.39
5234.67
7777.92
7669.86
8037.38
21915.5
22691.3
23017.3
37223.9
34643
38016
34806.1
32616.9
28113.9
4274.74
11904.1
14939.3
32244
30106.4
32924.4
1391.13
1688.43
1603.33
2572.69
2774.64
2557.62
28020.9
26975.3
26656.8
2965.67
2973.7
2411.84
2110.97
1641.31
1037.68
136.862
333.933
2322.1
2407.73
2360.53
2777.73
2409.89
731.476
386.028
29406.3
30533.1
25637.9
10145.7
9980.62
9506.58
11358
10002.9
9289.76
10583.3
10637.9
9764.21
3777.88
3214.03
3038.62
1286.44
7188.37
8139.55
8230.01
1726.48
1053.62
970.996
648.855
573.155
975.998
1550.58
366.763
749.254
11583.6
11685
13151.1
1867.04
1522.38
1562.14
1324.51
787.34
1606.4
1656.33
1891.72
4660.61
1191.25
4543.4
4266.68
4212.28
4843.47
9550.25
3327.98
8602.9
3999.5
7740.3
7449.45
6877.19
2598.67
2427.29
2601.58
19782.5
21603
20285.9
506.087
995.399
404.195
870.146
12563.7
13975.8
4695.05
829.659
1364.15
812.019
10485.6
8390.92
8164.61
17983.4
17128.7
22174.3
1983.59
2020.38
1882.36
481.549
342.18
1587.47
1777.43
1854.43
13869.1
14556
15964.8
11750.7
13073.3
12695.4
243.798
2106.17
295.656
664.594
801.185
408.08
502.544
624.511
474.073
7797.14
9572.24
10203.4
501.38
419.754
2665.19
2664.35
2367.31
724.501
8141.85
7939.67
7866.02
17730.5
18372.4
18864.4
17092.4
17902.2
17027.4
4533.11
5165.33
5725.02
4097.18
4217.18
4132.43
13999.6
9410.71
9357.32
11138.2
9706.55
12609.5
9303.43
9349.51
11074.3
932.937
4377.99
4273.89
4144.95
2334.55
2318.79
2875.14
1001.62
8732.15
9509.27
10181.3
8210.75
1897.37
11247
10397.7
9589.04
8994.43
2382.85
2812.53
10004.9
2627.24
9889.26
10538.7
8922.86
2351.99
2207.57
2936.85
2982.9
29718.9
23447.9
24092.3
12803.4
12586.6
13379.9
12364.8
12777.3
12133.4
1690.95
5430.96
6574.01
5808.76
7463.44
8110.66
8328.91
6558.52
7651.6
5973.63
2489.65
3016.75
2328.7
2273.75
169.872
205.558
257.672
4080.03
2902.57
2523.32
12874.5
5078.51
14003.3
15425.8
13407
13111.5
14084.7
13753.2
16043.6
602.316
590.679
496.136
478.821
8296.21
7976.68
7922.38
3582.64
4430.91
4576.24
299.16
19247.4
18724
15013.7
5028.53
5377.99
4190.83
5432.63
5655.54
1992.53
17863.7
17923.6
19954.8
16923.1
14708.7
14412.7
15177.3
14925.4
16860.2
351.306
397.578
432.977
432.395
7968.61
7547.91
7446
2589.47
2382.51
2830.37
4398.03
4168.54
4882.39
4727.39
3244.47
3314.15
4934.05
5078.69
4207.63
4246.14
2643.54
3218.97
2826.21
1202.92
8874.75
9463.08
9037.19
5982.96
6732.64
6218.8
8540.74
8519.09
8741.68
8153.19
8278.41
8325.31
4338.03
5424.01
5568.08
962.601
446.125
408.955
3273.79
3209.31
3257.19
806.814
3171.76
2561.06
5447.09
5625.55
4892.56
6958.47
6778.43
7148.02
6013.75
6396.47
6551.32
2194.02
1035.05
1332.5
1353.72
3349.1
3450.11
1191.72
1603.22
6408.17
6779.06
6666.34
742.636
774.907
672.775
614.478
5513.43
6217.55
6012.37
9616.55
4221.38
8491.37
3939.13
3679.85
3986.22
1612.27
1449.18
1482.17
1771.65
1730.4
2257.24
2456.79
2048.37
6781.24
7162.86
7017.73
985.425
1262.54
1626.72
1932.66
7205.95
5914.61
4347.52
2864.54
2898.34
2950.81
2980.18
9795.49
10721.7
10739.9
1847.49
2224.17
3470.5
4177.92
3563.51
4328.03
4146.26
1700.81
5614.92
7032.44
6297.13
533.341
201.316
639.505
614.045
1509.82
1238.64
1476.01
1320.51
1473.5
1314.48
1626.55
2175.43
2053.96
2750.02
1537.5
9555.34
10411.3
11102.9
2911.78
1881.09
2920.55
3226.1
7445.45
6869.4
5656.61
7273.64
7658.66
8658.15
545.896
556.471
1535.36
1161.4
564.567
2658.26
2296.53
2411.98
315.896
252.85
177.579
146.034
12970.5
11482.4
11053.9
1225.07
1298.42
1785.2
2212.31
1879.12
3022.38
1253.97
942.345
1115
2099.13
2214.57
622.62
629.457
1728.58
4088.61
3008.61
995.835
1539.12
8734.08
10007.7
9338.02
5170.18
4941.99
5391.66
4613.4
4354.57
4695.54
1458.76
4698.45
1976.79
2089.86
1666.6
7765.55
2999
7660.41
1664.81
1589.14
1747.79
1361.94
1159.05
2212.99
7363.72
7123.59
7648.64
572.096
455.206
5440.25
2423.72
2959.55
3832.45
3795.8
1644.74
1685.89
2265.48
1397.28
7375.06
7321.3
3100.21
2823.25
2335.95
1778.38
10503.8
9152.22
10569.1
10584.6
9776.31
8874.39
10856.1
10474.7
11139.4
3666.06
4614.83
4344.35
3732.83
3859.44
2766.63
906.801
556.165
11465.2
10922.6
9962.17
12044.5
11531.4
11509
563.719
574.932
1535.49
1073.12
6518.29
7968.38
9548.31
5055.89
620.673
4121.42
9689.5
10675.1
10319.9
6882.97
4420.08
546.257
8456.58
7285.72
8759.48
4895.75
2096.24
4305.1
4836.3
5253.77
2621.05
8006.41
7193.08
7790.46
6373.34
7174.99
610.644
670.375
2572.26
2632.78
7100.77
6941.74
8078.16
2064.72
2615.78
2838.64
571.13
834.412
437.153
477.541
1218.23
1162.5
1023.17
660.971
1424.71
1052.15
1100.8
1053.43
6162.38
5776.98
5934.06
5363.35
5291.12
5644.64
4514.19
4933.34
4991.9
444.312
2311.96
485.231
936.297
888.982
555.086
586.217
958.07
963.003
1331.33
1300.27
975.004
656.571
702.003
2186.66
2148.69
3469.1
3505.4
7973.14
7963.08
8131.91
465.456
464.522
325.118
463.006
1350.46
1345.21
1161.19
8137.66
7978.88
8085.49
7481.84
7778.06
7957.73
4658.07
4835.7
4311.2
3066.06
4274.79
4354.05
4502.6
17521.7
15967.8
19142.6
3563.12
7269.09
1505.73
2405.57
5544.04
2294.38
10424.6
11172.7
10033.8
5395.07
6690.98
2744.71
4105.09
2025.2
2144.46
1836.39
1928.13
2984.93
2587.1
2466.01
6751.56
6595.76
6523.93
5234.03
6167.31
6560.17
1739.47
1682.77
1599.98
1025.93
1184
943.941
1598.24
1781.26
1825.54
1738.25
1755.42
1580.7
2367.27
3128.9
3252.52
3380.1
3260.17
3712.1
2514.86
1670.51
1408.43
2447.44
1091.66
4283.98
3756.93
4166.16
2984.74
3769.61
1516.73
2421.58
1937.07
3854.73
2642.4
2692.09
2489.7
2568.54
3764.7
470.368
2167.35
2046.69
2919.06
3044.2
3174.14
2810.09
1855.09
1893.63
1778.09
1816.85
2743.71
496.574
457.835
54.7452
1164.83
1112.59
1124.42
3198.52
242.589
958.007
403.162
1636.53
1515.85
1201.36
493.979
489.17
410.245
2584.59
3004.25
703.337
730.554
428.266
405.093
4929.36
3379.62
10030.2
2425.56
2668.48
863.175
4775.51
4929.54
5126.83
3108.92
2399.06
2401.29
2387.1
2394.64
3061.66
631.766
661.904
5790.02
6017.05
4305.58
3118.3
2398.5
2390.69
2402.87
2402.32
3130.53
3498.04
3345.14
3988.06
2311.46
2300.13
2215.35
2319.09
1227.83
1114.16
1118.56
1705.72
411.588
438.064
365.351
384.155
587.826
372.469
335.24
801.7
447.649
1552.31
1141.21
815.003
1518.46
207.485
550.994
460.891
173.243
414.965
306.39
912.184
667.282
767.165
1439.15
1481.27
1903.58
2011.28
1704.25
1679.16
1478.18
1585.06
1653.29
1174.48
1399.48
1371.5
2720.85
3498.06
3144.9
3472.43
3534.89
2794.18
1554.97
1559.61
1381.96
1455.02
2389.61
1795.46
1171.65
1214.77
1225.56
1122.97
1428.12
2156.97
2598.79
2440.36
1916.27
944.748
3500.02
2413.25
2224.67
2679.32
2575.87
3721.79
4349.76
4898.78
3472.74
2952.89
2600.74
3958.78
2946.47
1215.56
2097.37
2141.22
427.164
1492.44
1295.59
2506.64
1972.44
1366.2
2636.42
2403.13
3257.45
710.124
640.925
554.615
1349.04
2737.17
1682
1782.72
2017.08
1834.4
2942.61
2512.59
2222.56
1187.76
71.0227
83.3413
1967.45
2153.96
2020.32
559.315
499.11
676.451
328.434
382.519
168.977
1636.04
1694.61
787.457
1272.43
896.739
770.752
1530.88
1647.35
1475.13
2917.31
3349.78
3023.26
2510.72
2942
2040.02
1440.92
1475.66
1316.68
1393.64
1956.27
503.578
2428.63
333.54
417.025
745.206
745.504
574.983
702.095
370.795
691.052
943.234
107.055
508.868
882.92
923.391
1033.3
849.945
646.191
469.288
461.008
333.231
451.66
420.397
497.585
1782.13
3749.53
1132.11
9556.92
9135.75
7964.85
531.944
3043.03
2007.15
2043.82
1931.52
1970.22
2994.06
1713.49
7536.07
3109.3
2796.27
2546.08
3021.59
2863.98
1751.14
516.274
498.635
590.906
453.433
1880.64
1144.2
605.235
981.284
433.944
448.966
1163.45
4011.86
4261.55
4356.83
2526.52
2295.98
2305.37
2489.71
931.89
1161.13
1831.76
1331.78
3286.7
2801.51
3424.6
544.336
3537.54
4441.36
2505.38
2818.11
9314.26
8955.51
7423.04
10586.2
10070.4
10257.7
548.871
3065.09
3057.17
509.065
10243.7
1764.57
6235.1
1729.07
1567.96
3492.04
2762.07
2441.04
4049.25
3603.26
4089.24
3113.04
2945.74
4711.7
4368.41
4403.47
4608.95
4213.48
4157.28
4365.73
4288.55
4664.71
3061.99
3091.47
4493.84
3001.27
12279
4856.84
2978.34
8615.27
7490.22
6305.14
2988.52
1047.1
1058.3
1018.4
1034.42
2986.04
2953.23
1088.56
1111.69
1067.37
1076.58
2965.41
9926.19
10097.4
8269.17
7093.85
8631.54
9362.89
4215.84
2397.08
2384.51
3017.93
1852.34
1810.73
1771.69
1822.05
178.422
424.006
4698.64
4850.12
4261.53
6177.06
5788.95
6089.35
583.008
669.53
515.035
3605.4
3288.15
4159.81
1101.89
721.395
887.396
1026.61
2427.47
2894.83
1489.34
3448.23
831.985
923.271
575.552
549.58
3468.96
3027.46
2963.46
3146.56
3067.03
3463.52
3395.11
2812.71
2692.28
2953.89
2825.18
3383.76
528.868
522.522
1278.1
1246.76
1354.28
1474.33
1596.72
1156.69
1156.07
1226.24
1483.28
2077.7
2228.65
1865.97
1961.52
1556.26
805.922
1122.76
945.185
308.246
266.132
404.626
418.487
2324.42
2399.95
2283.21
376.023
413.115
3221.41
2725.34
2731.13
2704.26
2712
3239.34
3132.86
2736.01
2754.27
2735.01
2738.35
3151.21
395.945
419.119
2744.14
2392.86
3703.43
3655.83
4631.41
5093.62
5016.59
5139.7
5153.55
4699.05
4157.75
4697.67
4556.82
4916.05
4818.2
4294.66
4558.28
4523.75
2917.95
3135.68
4626.35
4585.91
4734.59
4818.77
3218.09
2837.32
4458.69
4619.87
2741
2863.94
3583.15
3761.49
3674.58
1509.93
2802.52
2829.65
6796.86
7232.86
7640.44
823.516
855.352
778.837
810.935
815.712
746.91
857.281
854.051
1080.48
1136.05
934.686
902.351
1163.45
1131.33
1321.69
1339.96
3005.71
1497.29
1004.23
2267.62
764.935
4063.41
4068.87
4381
3414.39
2358.2
2423.88
2247.1
2301.43
3327.71
5141.98
5196.86
3991.55
4631.9
5000.78
5120.58
777.305
3342.15
3221.92
3183.09
3298.48
3205.95
3075.31
2778.96
3396.43
3372.67
6680.46
6661.61
5971.09
5150.71
5926.44
6128.3
2539.99
1702.82
1740.32
1630.42
1666.44
2474.03
2012.51
399.446
612.463
596.449
634.965
611.971
353.226
1170.58
1275.05
1054.77
3237.98
314.712
236.499
443.101
561.651
499.67
724.653
653.704
540.403
502.015
502.871
983.9
1169.11
1142.46
1207.84
1186.97
999.801
901.356
1066.72
1037.65
1119.46
1092.48
924.103
767.734
320.314
602.536
638.176
816.17
764.242
4437.62
4895.73
4768.27
5297.58
5119.13
4615.2
4181.38
4659.41
4700.28
4686.35
4648.43
4172.68
3234.02
3025.79
2726.21
4332.24
3870.49
3720.37
1192.85
1561.45
2947.35
2409.09
2387.17
2582.25
2472.33
2971.27
4896.81
5257.24
5316.24
4873.79
5065.65
4632.92
2458.35
1954.14
518.783
2766.36
3782.99
3401.61
2966.22
1694
1692.61
2280.42
1977.82
1545.42
2119.72
2579.81
2479.54
3046.42
2370.83
2414.09
2378.96
2364.39
3063.72
3320.28
2545.57
2505.33
2616.12
2903.9
3113.33
1128.33
1215.98
857.721
2871.55
2856.4
4525.99
4072.37
4095.69
4111.59
4074.82
4524.68
4641.17
4242
4208.83
4141.14
4198.38
4614.81
2934.23
2904.21
933.036
928.708
2024.86
1726.21
4160.56
3097.62
3366.74
3900.33
4354.79
3876.79
3591.51
1480.62
632.962
553.182
3012.32
2919.41
3075.84
2062.72
2674.78
2845.71
3491.11
3189.6
3166.81
3164.65
3182.78
3462.82
650.002
615.713
2784.44
924.127
941.291
920.981
915.416
2726.19
2928.53
985.473
1001.84
953.662
970.788
2899.45
499.395
490.028
461.104
482.091
1644.26
1036.04
1075.23
856.411
791.102
540.442
481.27
920.742
1558.17
1530.02
1668.48
1012.67
1318.96
2504.4
1850.83
1567.28
1370.16
3768.79
3662.95
3435.22
3654.85
812.99
715.522
576.418
865.16
821.345
963.602
536.624
509.375
460.937
739.628
767.27
214.918
313.113
3971.08
2715.49
2813.34
567.502
2733.11
3680.99
3650.39
2763.51
2477.06
2767.92
2769.34
3937.7
163.071
193.635
1874.98
1352.74