/*--------------------------------*- C++ -*----------------------------------*\
  =========                 |
  \\      /  F ield         | OpenFOAM: The Open Source CFD Toolbox
   \\    /   O peration     | Website:  https://openfoam.org
    \\  /    A nd           | Version:  dev
     \\/     M anipulation  |
\*---------------------------------------------------------------------------*/
FoamFile
{
    format      ascii;
    class       volScalarField;
    location    "1100";
    object      yPlus;
}
// * * * * * * * * * * * * * * * * * * * * * * * * * * * * * * * * * * * * * //

dimensions      [0 0 0 0 0 0 0];

internalField   uniform 0;

boundaryField
{
    inlet
    {
        type            calculated;
        value           uniform 0;
    }
    outlet
    {
        type            calculated;
        value           uniform 0;
    }
    ground
    {
        type            calculated;
        value           nonuniform List<scalar> 
5358
(
44566.7
44567.8
44567.9
44568
44568
44568.2
44568.3
44568.5
44568.8
44568.8
44568.8
44568.5
44568.3
44567.9
44567.7
44567.5
44567.4
44567.3
44567
44567.1
44567.4
44567.6
44567.5
44567.6
44567.6
44567.7
44566.4
44566.6
44566.7
44566.6
44566.5
44566.5
44566.4
44565.3
48110.9
48109.5
48109.4
48109.2
48109.1
48108.9
48108.3
48108.9
48108.5
48108.1
48107.8
48107.3
48106.5
48106.1
48106
48105.7
48105.1
48105
48105.6
48105.7
48105.7
48106
48106.6
48106.2
48106.9
48107.4
48106.7
48107.6
48107.5
48107.7
48107.9
48108
48108.1
48109.4
50579.1
50577.6
50577.5
50577.4
50577.4
50577.1
50577.3
50578.1
50577.9
50577.9
50578
50578.2
50578.5
50578.7
50578.7
50578.5
50578.6
50578.5
50578.3
50577.9
50577.6
50577.5
50577.5
50576.6
50576.9
50577.8
50576.3
50576.5
50576.1
50576.4
50576.6
50576.7
50576.6
50578.4
51870.4
51867.7
51867.1
51867.4
51867.5
51867.1
51867.9
51867.8
51867.7
51867.8
51867.7
51868.3
51868.3
51867.9
51867.9
51867.3
51866.8
51866.8
51867.1
51866.6
51866.8
51867.7
51867.8
51867.7
51867.6
51868
51867.2
51867.6
51866.1
51867.2
51866.7
51866.8
51867.2
51869.9
52383.7
52380.1
52377.9
52377.6
52377.3
52376.1
52376.1
52374.1
52373.3
52371.3
52369
52365.1
52362.5
52360.2
52358.6
52357.1
52355.4
52355.8
52357.5
52361.1
52363.5
52364.8
52366.7
52368.9
52371.3
52372.7
52373.6
52375.6
52376
52377.7
52376.8
52377.5
52379.4
52382.7
52437.1
52433.2
52428.5
52426.5
52426.2
52422.6
52419
52413.7
52408.3
52400.7
52393.3
52384.8
52374.7
52364.4
52358.9
52353.9
52351.1
52353.5
52359.1
52365.8
52373.8
52382.6
52390
52397.3
52403.6
52409.2
52413.6
52417.9
52421.6
52424.7
52425.5
52426.6
52431.3
52435.1
52230.5
52225.5
52218.9
52214.1
52211.1
52204.2
52195.8
52185.2
52173.1
52158.4
52139.5
52115.3
52092.3
52068.6
52050.3
52039.3
52035.4
52042.1
52055.8
52075.9
52095.3
52111.7
52128.8
52144.4
52160
52173
52183.4
52193.3
52201.8
52207.7
52211.6
52214.9
52222.1
52225.7
51885.1
51880.2
51870.7
51861.8
51854.4
51843.6
51828.6
51809.4
51785
51754.6
51719.9
51680
51627.6
51573.1
51533.4
51511.5
51508.4
51523.7
51551
51587.5
51627.6
51665.8
51700.5
51731.7
51760
51784.8
51806.1
51823.3
51838.3
51848.8
51855.4
51862.9
51872.8
51877.7
51474.8
51469
51455.9
51443.1
51429.8
51413.3
51390
51359
51322.2
51275.7
51211.5
51128.9
51051.7
50981.4
50925.4
50894.1
50890.3
50910.8
50948.5
50996.4
51047.4
51103.6
51163.4
51220
51269.6
51313.1
51348.5
51377.9
51402.3
51419.7
51430.8
51443.8
51456.2
51462.7
51042.7
51035
51020.4
51001.9
50981.8
50955.9
50924.3
50879.2
50820.1
50746.5
50667.9
50571.6
50460.8
50350.1
50256.9
50205.2
50198.1
50226.3
50286.8
50360.8
50438.6
50516.7
50591.7
50659.7
50726.2
50795.5
50858.4
50904.4
50938.5
50963.9
50981.8
51000.8
51016.5
51024.6
50613.9
50604.7
50588.4
50565.2
50537.6
50501.5
50454.4
50396.9
50329.2
50258.2
50169.5
50049.5
49896.2
49734.2
49588.3
49488.1
49443.6
49464
49556
49668.1
49789
49903.8
50010.3
50105.6
50190.1
50268.5
50346.9
50419.3
50470.5
50506.3
50534.9
50559.7
50579.3
50588.9
50203.3
50193.1
50174.7
50148.4
50113.7
50068.3
50009.5
49954.6
49892.4
49827
49768
49801.1
23294
22957.6
22473.5
22126
22162.4
22506
22744.6
22922.9
23092.9
23260.8
23410.8
23538
23641.5
23725.2
49898.6
49955.5
50015.5
50066.3
50105.3
50136.1
50159.5
50170.8
49818.6
49808.2
49788.5
49759.6
49719.8
49668.1
49617.5
49566.4
49515
49488.8
49581.8
50218.5
22462.9
23846.4
10203.5
9701.45
7452.44
11235.2
21106
21134.8
21398.8
21708
21955.6
22162.1
22322
22443.1
49530.4
49543.7
49600.6
49654.7
49702.7
49739.5
49766.1
49779.1
49464
49453.4
49432.9
49402.9
49360.3
49315
49270.7
49223.5
49187.1
49216.5
49522.6
50941.8
24446
32391.8
9529.23
7116.79
9533.96
25294
21804.8
21111.5
21561.1
21854.6
22049
22187.2
49234.1
49183.1
49235.6
49287.1
49334.4
49375
49403.8
49418.1
49140.3
49129
49109.4
49079.2
49039.3
49000.9
48958.3
48911.1
48881.8
48935.7
49368.5
51294.5
25318.2
13554.7
22195.8
12205.5
12577.4
3402.57
12995.9
13848.8
36768.9
23573
21867.9
22037.9
22204.1
48982.9
48872.9
48915.7
48966.1
49008.6
49045.8
49074.5
49089.9
48845.8
48834.7
48816.4
48787.1
48753.1
48717.2
48671.5
48619
48579.6
48611.4
49080
51412.7
26129.6
8306.86
2387.29
3709.12
5275.48
3773.98
2566.23
4979.58
3988.65
33633.2
26019.4
22573.3
22109.3
22251.5
48745.7
48605.7
48637.7
48684.6
48723.6
48754.4
48778.7
48794.1
48578
48568
48551.3
48524.1
48494.1
48457.3
48406.8
48345
48281.4
48269.1
48807.4
51727.3
27227.8
8103.4
27340.6
27806.4
22291.1
42347.5
31193
22861
22394.8
22305.3
48495
48365.9
48392.1
48434.6
48471.8
48496.7
48515.6
48528.3
48334.1
48324.9
48310.2
48285.8
48257.6
48218.6
48163.1
48090.1
47996.8
47953.4
48645.5
52154.3
28119.9
15810.8
13298.6
17369.8
9208.84
35459.8
29739.1
22937.4
22396.2
22373.8
48226.8
48136.3
48167.8
48208.3
48243.6
48266.1
48280.2
48289.8
48110.5
48101.6
48089.3
48066.7
48037.9
47996.2
47936
47851.4
47725.4
47649.4
48421.4
51998.3
27977.5
27235.6
1417.84
2139.48
19643.1
31438.6
17789.6
29419.9
27339.6
22039.2
22217.6
22438.4
47949.2
47906
47953.3
47997.8
48032.8
48053
48064.3
48073
47901.8
47894.5
47883.4
47860.3
47830
47785.3
47718.9
47619.9
47453.3
47318.7
48050.3
51324.8
27351.2
25430.2
6174.83
2213.67
1319.76
2317.09
2512.33
27810.9
27843.4
22055.9
22473.1
22473.6
47662.3
47673.8
47743.5
47794.3
47831.8
47851.9
47864.6
47872.7
47705.7
47698.3
47686.5
47663.1
47628.8
47579.2
47503.7
47386.9
47171.4
46947.9
47539
50330.6
26416.6
24432.4
16842.2
2217.27
1900.4
7222.27
19456.9
23978.6
34172.3
29458.5
22586.3
23590
22478.4
47368
47440.7
47536.4
47594.6
47636.3
47661.2
47675.1
47684.3
47518.6
47510.6
47498.3
47474.4
47434.1
47375.9
47289.5
47151.7
46882.9
46545.3
46928.6
49210.7
25382.2
23768.4
17282.2
12537.3
13923.3
13470.9
17396.6
16456.7
26385.7
35525.1
29974.3
23364.9
25234
22431.7
47074.4
47211.2
47332.2
47400
47448.2
47477.9
47493.4
47503.5
47337.3
47329.1
47315.6
47290.7
47246.2
47176.9
47075.1
46915.3
46596.2
46136.6
46278.2
48091.2
53760.4
51485.1
50065.2
43922.1
40476.5
36913.8
32106.2
49279
66809.7
76444.8
64851.2
60154.6
55271.4
47186
46808.3
46996.4
47139.8
47214.3
47267.2
47299
47316.4
47327.1
47160.7
47152
47137.4
47110.7
47062.7
46984.2
46866.6
46677.1
46310.5
45740.2
45658.7
46936.7
52478.1
52230.1
53600.2
52058.5
47372.4
42275.8
40316
51690.5
64096.8
71104.8
62120.5
58895.6
54173.8
46845.7
46575.2
46801.8
46954.6
47033.6
47089.5
47123.7
47142.8
47153.7
46987.5
46978.2
46963.2
46935.7
46883.8
46799.4
46667.6
46449.5
46036.1
45367.5
45078.9
45798.1
51054
52625.6
55766.5
56170.2
51987.9
45494.1
44060.9
53777.3
62820.3
67431.3
61359.5
58808.9
53296.6
46596.7
46357
46613.8
46771.1
46855.9
46914.2
46950.3
46969.8
46981.7
46816.5
46807.1
46791
46761.8
46706.8
46616.3
46472.4
46230.9
45774.2
45021.1
44547.3
44743
49630.1
52152.8
56405.4
58436.2
54485.8
47096.8
45008.9
54925.7
62163.2
64921.7
61220.1
58560.6
52548.2
46400.9
46152.6
46430
46589.8
46679.1
46740.4
46778.2
46798.3
46810.7
46649.2
46639
46621.8
46590.5
46531.4
46435.3
46282.7
46020.8
45528.6
44706.5
44070.6
43800
48278.8
50893.5
56062.9
59797.6
56384.7
48453.9
45104.6
55522.3
61781.1
63198.3
61011.6
58039.9
51898.5
46237.5
45964.1
46251.3
46412.1
46504.2
46568
46607.4
46628.7
46641.9
46484.2
46473.9
46455.2
46421.5
46359.7
46258.9
46099.4
45821.7
45303.2
44427.9
43654.2
42982
47039.9
49196.6
55418.4
60537.8
57465
49093.3
45264.7
55818.9
61503.3
61987.8
60573.5
57366.2
51329.4
46096
45791.2
46079.4
46237.9
46332.1
46398.4
46439.2
46461.8
46475.2
46324.7
46313.9
46293.8
46257.9
46193.9
46090.3
45926.1
45637.8
45099.8
44187.2
43299.1
42287.1
45919.3
47461.1
54884.2
60935.2
57915.8
49373.2
45323
55892.7
61222
61070.2
59949.8
56631.6
50824.5
45969.6
45634.5
45918
46072.2
46167.2
46233.4
46275.7
46300.2
46313.5
46167.2
46156.1
46134.9
46097.4
46032.4
45927.3
45760
45467.2
44918.5
43982.3
43002.2
41711.8
44942.5
45959.4
54761
61324.4
58272.1
49642.2
45431.7
55899.6
60994.4
60363
59258.4
55910.3
50375.4
45856.4
45494.3
45765.9
45912.6
46006.9
46072.7
46115
46140
46153.6
46022.6
46011.3
45989.4
45951
45885.7
45780.9
45612.9
45318.5
44764.7
43813.9
42761.1
41240.3
44078
44718.8
54619.4
61284.3
58162.9
49562.8
45239
55606.2
60553.1
59626.1
58445.1
55161.4
49955.8
45756.7
45375
45632.7
45770.3
45862.9
45926.3
45968.8
45994
46007.3
45873.3
45862.2
45840.3
45801.8
45737.1
45634.2
45468.2
45177.1
44627.1
43674.8
42568.4
40885.5
43372.4
44144
55331.9
61992.7
58943.5
50048.6
45753.1
55800.6
60444.3
59151.5
57811
54531.9
49585.1
45663.6
45266.4
45504.9
45629.6
45717.6
45777.8
45818.5
45843.1
45855.8
9798.62
9805.09
6556.92
23202.3
16873.9
11154.9
23452.5
9644.66
3673.39
16953.8
1426.35
7861.43
12199
1838.68
1218.29
1402.79
2826.98
26182.1
5726.4
901.052
13261.4
1810.85
4114.01
22797.7
14192.8
1823.71
4112.17
4787.09
9557.65
3072.01
26800.6
4180.91
9753.85
3346.43
7399.97
19563.9
3137.22
8830.83
20677.7
28519.3
8419.84
3124.48
21955.2
46813
18732
16120.6
431.341
1076.61
11686.1
681.009
10265.4
10432.4
9581.35
21557.6
12916.7
1785.09
19875.9
420.27
2448.01
3808.31
1676.6
5282.92
15081.9
12006.7
1525.61
326.213
2195.93
1616.76
232.086
445.634
6973.88
7062.87
8462.58
7988.12
11946.8
28127.5
8319.4
485.751
15695.4
6120.21
444.67
13932.7
15885.6
3904.59
8627.14
5579.03
12053.3
16389.3
676.405
8132.35
13797.5
18114
16125.6
5401.58
4006.06
22052
10072
21664.5
22289.9
9906.13
11303.9
13161.2
5060.89
21462.3
13963.7
10653.1
21058.5
21155
12943.1
20003.8
34947.9
13911.3
720.422
7649.85
4307.6
2884.84
1307.32
5956.83
9402.75
11159.6
9506.09
2389.28
8268.51
1516.08
25279.4
29889.5
24099.9
20931.3
39436.7
29200.7
13164.6
14082.5
25748.4
12124.9
1411.98
4749.59
12230
8395.33
4897.3
1919.59
2976.99
305.783
13322
3878.41
13523.6
8026.99
27775.2
26965.3
31760.7
14758.6
16605.4
26632.5
8213.14
11298.8
3654.11
3806.47
12865.7
58751.9
25534
4357.12
16996.6
18522.8
3810.13
5541.48
4469.63
14575.5
40917.8
19994.9
16905.2
16711
27788.3
7890.22
2299.3
2426.45
11991.6
11384.4
28805.2
2771.65
3431.04
10926.9
3490.18
2771.07
7413.42
9186.39
1970.84
22890.3
8644.51
11490.9
4805.29
29244.4
13881.3
9661.21
7902.47
2791.82
2233.1
3643.83
4097.45
8786.35
22704.2
8786.83
8203.33
4178.51
4364.33
26169.6
1046.04
20818.2
3284.01
2345.14
23109.4
4270.39
3404.95
38616
13318
4677.25
7317.59
6155.46
4365.01
5928.31
13449.4
2259.07
1777.41
7938.03
6557.57
1040.11
3408.73
1782.37
3853.55
3085.95
2654.88
6223.48
15482.5
18187
2985.01
6347.57
7897.99
2686.63
10785.1
10326.8
5263.5
12503.6
8934.11
5862.12
10304.6
7053.04
4164.84
1493.82
852.4
22206.9
1241.17
1858.62
7453.6
8890.08
24213.5
7154.04
1551.71
7510.18
23437.4
9757.48
2666.21
621.343
13559.7
2159.46
5680.3
12183.4
1252.77
1275.4
1631.33
2851.36
1589.13
10361.6
105.453
12145.4
1473.73
9092.29
629.121
2553.53
12932.2
1657.36
3515.95
1484.2
6028.56
16293.8
14768
6497.58
5381.85
3054.87
3462.44
4530.63
2685.55
3091.44
1932.02
5915.11
4351.53
7608.16
3312.46
13802.6
4204.96
4283.34
7292.47
1097.19
23987.9
7914.58
4463.23
13047.6
5393.51
4055.01
3780.8
1682.76
7831.22
1842.73
1911.12
1977
2957.7
7804.2
1537.06
10974
2985.21
2167.48
6026.77
2568.94
21726.4
2241.18
5260.37
3665.63
11827
9663.84
11394.6
3326.44
2347.57
29226.3
10588.5
3611.2
9537.59
8649.19
8083.44
7247.7
5509.5
6223.65
6422.5
5449.41
22725.5
22862.8
9071.9
6035.98
5729.23
6372.47
6135.29
5487.63
21823.2
8914.77
9493.46
9789.27
14807.3
4805.83
3169.49
2598.96
4757.72
1363.32
6673.73
8572.03
7544.87
15277.1
13246.4
3597.39
2926.07
9409.4
7202.37
9567.54
22929.1
5316.34
12142.7
13685.8
15183.8
2397.12
7894.32
15054.2
8140.74
2252.66
755.726
2261.88
904.281
1131.05
2085.66
600.127
3500.56
12430.7
1275.96
6560.81
4264.18
5768.62
4674.53
481.412
2290.4
491.389
1961.62
575.488
6150.28
8466.36
6081.48
5767.58
593.311
1018.36
5619.56
6161.37
2509.98
2038.22
2502.05
3100.46
7196.51
7028.52
2691.62
13701
8188.45
3879.23
4050.94
1141.23
3769.65
8153.78
7642.93
4415.79
3484.83
4397.48
22295.6
21631.6
21833.8
26181.9
20419.1
29974.9
10307.3
10724.7
13036.3
7081.88
9054.78
7929.38
9091.96
6082.47
5840.38
26669.8
10125.1
3399.98
12265.7
12429.1
12342.2
11358.3
5441.96
2854.77
14248.9
6121.38
5041.49
5093.51
4296.99
1519.39
679.671
1604.48
1609.08
6814.05
17707.8
16593.4
6751.06
7926.32
2605.61
5919.36
15584.7
14660.2
3489.98
3109.35
3668.51
2596.96
4410.94
4295.77
17896.6
16051.6
18069.2
1203.21
8440.81
10102
3855.87
3639.9
4057.07
7446.69
6203.36
3062.68
15276.3
12531
15673.1
2863.18
2667.26
9550.17
22008.4
24876.7
3689.18
4911.19
5444.91
1048.47
324.357
1410.74
3464.88
3288.55
1099.66
3224.79
98.7505
1396.21
494.841
481.053
4280.98
9174.83
2534.7
6439.12
6408.07
7773.27
2851.15
1145.88
15729.8
14531.2
17694.1
21770.5
21622.2
17550.1
15918.3
16227.3
9997.04
550.097
387.924
8623.09
10600.1
4565.74
7600.05
5711.14
3130.62
3007.7
443.008
703.902
15367.5
3722.17
20091.7
3104.07
3134.77
4187.97
1260.61
11842.1
11953.5
12039.3
1726.5
446.051
1569.42
1792.82
695.368
886.724
2655.6
1938.14
19888.9
9213.17
27100
2014.97
1577.34
911.236
4006.29
2379.34
2770.36
9700.01
3022.13
4182.76
3586.77
3634.08
2859.21
1284.9
3633.41
8771.32
1849.98
1482.89
3346.53
3837.02
23230
24353
21203.7
3580.97
9393.05
2107.75
4514.6
2494.09
1506.16
1641.45
3684.03
707.387
1579.51
2675.25
3114.38
1755.4
6417.74
4482.46
116.462
9364.09
8374.61
9655.77
5220.88
5556.42
1981.74
21334.1
19257.8
17457.5
741.14
2527.12
232.68
1082.55
1646.05
1345.35
3853.76
4391.34
5707.87
3141.29
2115.4
1843.48
434.877
2577.69
412.671
2181.26
423.451
238.095
437.909
2831.26
3912.77
2326.5
2415.74
547.527
795.478
2585.5
2186.06
474.734
450.426
6176.4
5486.85
6288.33
7639.71
4661.48
5104.93
210.008
512.896
8709.62
8217.79
7722.16
7092.52
7787.4
8610.23
2088.25
2012.44
6379.51
6522.47
6300.65
8192.11
4098.16
17041
7770.36
17296
10599.7
8730.41
8673.74
298.021
3067.99
2922.72
9725.9
9565.55
9541.3
9621.74
9653.45
10740.2
5975.82
6514.48
5813.46
18452.1
17082.7
17678.3
1621.2
2103.52
1374.77
1350.61
8288.58
6203.39
5246.74
4190.48
554.036
3811.69
368.032
9904.39
16821
10161.2
8856.97
2814.54
4443.8
4743.05
10288.2
4578.27
4707.66
12677.6
20185.2
28257.3
22659.2
20141.1
26694
4001.85
12083.4
4577.92
3713.99
7439.16
8802.83
6002.92
12438.9
12485.1
12300.1
2985.8
2971.69
2955.73
2974.11
8316.31
12394.1
22062.4
8168.06
11200
7867.64
4999.72
8032.49
2975.5
178.752
219.055
3539.32
6338.44
14124.2
840.933
863.266
4346.13
752.786
844.33
4838.07
396.281
930.454
3447.14
3522.54
3324.14
3483.45
1699.7
1293.93
1461.26
1600.43
630.807
335.599
143.559
252.24
343.843
22028.2
23879.7
27287.3
6058.09
5776.25
3688.77
2040.56
5581.59
5383.45
3197.02
3264.86
3130.64
3175
2935.6
2437.51
3688.58
3583.15
11843
4540.55
4705.08
3995.87
4425.75
11628.2
2992.02
11805.6
11750.8
11497.8
11724.2
3065.62
3131.9
11790.1
12008.2
11218.1
11487.7
3015.64
2650.1
3226.23
7720.99
7927.27
3360.08
8806.45
8219.57
8246.41
9759.53
9505.47
17908.8
14023.2
8849.15
14283
15426.1
7251.88
9731.59
8361.79
8441.94
7590.67
7890.93
8919.65
2796.58
2516.66
4613.11
5039.45
2426.98
9470.08
8857.29
3773.91
3517.21
3253.84
4270.26
12234.8
13083.4
10991.8
11558.9
4594.13
1213.86
3025.21
6656.1
6144.23
3202.09
7015.84
2907.99
9186.89
9552.36
11032.7
7486.11
8393.79
8476.98
5835.68
15888
15522
13184.8
14021.3
5462.58
2601.6
2408.87
4714.69
5111.9
4071.88
6379.77
5788.23
5430.7
1543.22
1675.33
397.272
343.129
1101.95
2859.98
2916.9
3221.03
361.962
163.523
1636.94
350.084
604.605
500.352
497.36
2925.77
960.573
1006.35
874.562
940.95
2810.64
2636.3
974.848
2737.95
2675.85
812.656
588.84
10517.6
4293.21
4867.55
4234.67
4217.75
10336.4
3082.29
4046.13
1406.75
8895.58
7485.97
7706.02
5798.77
6724.32
8462.23
2940.37
3024.43
10172.4
5096.58
4396.13
652.108
3720.18
1739.81
1748.86
1680.46
6231.83
6207.91
5730.35
5981.87
1991.61
3049.9
3084.84
8004.28
7260.21
7025.09
7680.75
7514.63
8612.79
4094.29
6419.14
3169.76
618.026
5446.21
5426.1
4540.67
4541.13
4587.07
4585.28
4280.89
8314.83
9516.86
5754.52
6851
1424.42
3280.73
2091.45
3505.64
3453.53
2812.87
2747.41
2954.13
2867.89
12053.3
12106.6
12322.4
1699.56
460.977
1586.2
2246.64
1163.85
8863.8
8135.23
8335.63
9464.19
541.591
985.599
4067.74
2124.29
491.891
4074.54
2093.33
2731.22
4019.4
1924.88
1757.4
841.743
5920.64
99.5612
241.579
3022.03
166.063
830.95
3260.08
661.877
2748.35
3498.17
1081.48
1226.76
893.493
918.753
2250.08
1257.73
2519.89
963.969
1482.35
1106.85
1661.4
250.478
4956.68
124.87
158.326
4610.03
1580.75
1412.23
8706.52
2687.19
2118.2
4828.35
4666.69
2933.64
4049.94
5241.88
5445.8
3155.63
6140.77
4443.6
2307.52
11295.3
10849.2
3974.43
757.514
4379.45
6482.61
654.506
794.706
785.858
3224.18
2747.59
3126.84
10264.4
2562.86
3742.71
2759.91
7872.81
9440.74
1021.21
1601.77
2725.91
8454.72
7998.37
1819.57
1296.93
4507.89
339.063
4568.26
2996.23
11238.1
1427.97
3525.81
4027.04
4540.78
4970.19
12095.2
11323.9
11708.4
12068.8
11425.3
4304.22
3927.12
2115.81
10153.2
10973.9
2675.82
2630.51
4175.53
2758.19
7617.78
7630.86
8261.53
3132.73
2931.25
7313.63
2356.32
2500.52
5655.93
367.735
395.277
373.564
368.676
5933.88
422.059
347.351
5211.81
6004.47
401.665
395.285
377.73
400.458
5990.76
6437.71
380.506
376.442
392.102
381.806
6275.77
10148.7
9071.88
8988.59
8649.06
8792.37
10106.8
5090.23
858.55
5234.45
4382.93
1821.46
4826.6
7389.6
6960.48
1956.31
3139.97
618.023
680.575
2994.36
121.247
2674.7
2469.89
2784.67
3843.5
2818.21
1981.56
6030.92
6176.99
589.134
2431.64
618.224
1308.44
1902.4
2861.35
3291.2
1155.69
4136.55
3863.89
2949.19
1776.47
1395.85
3183.04
4975
1187.94
2348.47
2173.54
443.936
2511.83
457.776
327.664
371.781
2074.89
2217.46
2157.51
509.355
573.591
2421.34
2417.81
2980.95
2904.32
889.473
2361.88
774.314
850.541
650.978
747.247
2203.39
440.379
393.935
2937.56
984.955
531.936
1011.52
1029.36
3267.27
524.382
496.976
2398.34
2587.72
5954.46
5391.39
7236.44
6590.45
3337.7
3391.35
3280.93
3345.54
341.642
1059.49
4233.39
2105.5
1071.93
1239.73
2332.83
4391.51
3527.37
1272
1344.1
1583.07
3699.7
521.787
3204.09
3102.86
2213.86
2027.25
2616.53
2291.44
1852.68
1803.63
1983.62
1880.07
10138.6
14729.5
13524.1
7724.37
3173.72
9341.53
10649.2
10603.9
13067.1
12798.1
12057.9
2882.91
2781.38
3304.94
13886.8
5160.19
12897
8116.73
8032.6
8336.08
2423.5
2291.33
2565.05
3001.16
5323.61
5033.49
2361.86
2583.22
2145.95
4496.25
5707.56
5265.63
7779.47
7670.76
8041.52
21893.2
22672
23004.1
37312.8
34804.9
38118.2
34930.9
32796.1
28153.8
4289.93
11941
15026.6
32400.6
30299.3
32953.7
1375.55
1667.59
1585.89
2549.84
2749.05
2521.79
28342
27459.9
26906.1
2982.62
2984.28
2416.37
2116.23
1651.38
1045.39
136.813
326.881
2302.35
2399.91
2397.37
2843.6
2436.31
717.647
382.085
29069.5
30369.9
25357.4
10143.3
9976.98
9503.6
11357.2
10005.2
9291.03
10584
10638.5
9764.54
3777.98
3213.95
3038.59
1300.95
7173.91
8145.57
8251.88
1773.84
1051.53
1022.5
634.275
541.38
1053.03
1572.99
365.956
758.207
11589.2
11689.1
13156.2
1861.23
1511.18
1551.14
1325.95
788.664
1596.25
1647
1875.91
4717.9
1185.68
4576.34
4274.08
4211.44
4802.73
9535.27
3318.01
8583.69
4004.54
7741.44
7446.59
6873.47
2599.64
2426.74
2603.44
19763.6
21580
20272.5
508.494
986.392
401.745
861.85
12518.3
13928.5
4718.71
847.251
1440.01
803.152
10499.7
8403.46
8174.92
17965.4
17126.7
22174.7
1967.99
2005.9
1872.18
472.104
335.933
1573.7
1758.63
1835.87
13875.7
14566.4
15926.6
11804.2
13125.3
12726.2
249.005
2157.29
298.94
660.289
797.478
402.428
508.998
634.833
481.698
7717.49
9458.81
9990.04
503.412
419.907
2641.64
2647.11
2362.78
762.464
8157.69
7948.21
7869.78
17705.3
18316.4
18840.8
17021
17815
16995.3
4539.71
5169.89
5731.11
4099.53
4218.09
4135.77
13998
9412.09
9358.67
11140.5
9708.46
12608
9304.71
9350.72
11072.3
935.769
4378.25
4273.79
4144.92
2334.57
2318.86
2875.37
1001.52
8733.37
9509.83
10181.1
8209.18
1895.66
11245.6
10398.2
9589.36
8994.31
2382.97
2812.64
10005.1
2627.28
9890.49
10539.7
8923.42
2352.31
2207.88
2937.2
2983.27
29725.7
23448.6
24096.3
12810.2
12585.9
13345.9
12356.7
12766.6
12125.5
1744.83
5408.27
6493.31
5789.68
7464.39
8109.9
8329.39
6524.62
7633.4
5937.59
2519.85
3014.16
2326.42
2270.18
169.778
205.446
257.688
4081.56
2903.88
2524.78
12886.8
5083.2
14013.8
15492.3
13433.2
13123.6
14121.7
13786.9
16127.3
605.766
594.135
498.44
481.162
8314.2
8013.18
7952.59
3526.61
4289.4
4362.76
323.769
19477.6
18994.5
15007.1
5025.05
5369.11
4193.7
5404.32
5633.4
1948.86
17881.1
17919.6
19931
16992.4
14749.9
14452.4
15216.7
14967.5
16920.8
353.021
397.859
435.66
435.1
7971.6
7549.63
7449.8
2596.3
2381.89
2830.4
4402.14
4172.16
4890.4
4734.31
3246.85
3318.34
4945.61
5089.06
4207.84
4250.22
2642.37
3215.73
2822.48
1199.04
8909.23
9488.41
9059.44
5936.68
6687.33
6187.72
8526.6
8503.88
8731.33
8112.04
8252.42
8300.97
4321.09
5367.26
5517.25
947.37
440.041
400.98
3246.46
3137.86
3210.29
787.989
3100.01
2485.68
5480.5
5657.21
4928.08
6943.44
6756.82
7113.01
6018.38
6388.05
6551.81
2206.68
1057.64
1385.38
1395.43
3368
3457.95
1186.13
1596.62
6416.38
6820.98
6731.94
723.789
753.496
634.949
573.235
5513
6217.48
6012.31
9617.2
4220.86
8493.54
3939.12
3679.81
3986.25
1612.8
1449.88
1474.23
1770.68
1726.73
2255.75
2455.13
2049.66
6782.75
7170.69
7019.4
987.118
1264.08
1627.41
1932.14
7207.28
5916.48
4348.08
2864.78
2898.62
2950.88
2980.28
9795.68
10722.2
10740.3
1847.3
2223.86
3470.08
4162.78
3538.63
4302.9
4117.47
1684.18
5532.68
7006.69
6254.56
522.974
195.663
643.245
617.919
1470.84
1366.91
1460.33
1451.77
1511.62
1319.07
1644.38
2168.7
2043.72
2738.31
1552.72
9559.24
10415.2
11107.1
2912.43
1881.55
2922.28
3228.06
7449.37
6874.77
5669.88
7278.01
7664.21
8662.35
544.608
556.958
1545.37
1177.07
568.047
2671.25
2293.29
2427.1
315.933
252.943
177.758
145.723
12974.8
11485.5
11057.3
1213.53
1286.49
1790
2213.66
1880.55
3024.62
1253.2
933.751
1104.44
2114.23
2231.43
635.565
658.45
1752.46
4104.07
3012.85
1012.38
1535.35
8756.43
10031.1
9379.7
5155.58
4931.32
5386.64
4575.36
4344.57
4690.82
1453.39
4689.54
2004.14
2179.36
1744.97
7768.66
3004.81
7817.73
1709.92
1636.43
1797.15
1435.49
1189.16
2187.48
7371.07
7134.08
7654.78
574.174
459.213
5461.14
2432.55
2950.36
3822.71
3788.39
1680.55
1710.66
2273.95
1399.15
7376.63
7323.89
3094.9
2817.42
2350.07
1784.76
10533.5
9164.6
10579.6
10616.1
9785.11
8884.67
10885
10483.4
11164.5
3671.03
4620.08
4346.44
3736.34
3864.3
2769.57
906.421
556.368
11480.7
10917.3
9955.02
12048.8
11530
11527.2
563.951
575.278
1513.95
1122.91
6515.01
7970.67
9560.25
5046.86
618.705
4115.98
9679.49
10668.7
10315.7
6877.48
4420.23
545.369
8447.75
7278.15
8747.53
4844.43
2069.82
4257.3
4790.24
5283.21
2640.92
8019.3
7215.23
7819.65
6379.67
7182.06
611.355
671.213
2568.53
2621.51
7094.88
6933.54
8066.06
2054.52
2600.92
2822.99
560.383
820.956
426.712
465.729
1201.33
1141.32
1005
646
1410.31
1055.55
1115.5
1036.85
6175.45
5811.2
5945.37
5403.02
5317.64
5660.95
4553.07
4967.75
5035.98
451.059
2338.02
491.058
936.7
890.52
554.057
587.606
956.65
961.842
1366.85
1331.38
990.66
642.096
684.75
2186.26
2148.55
3469.82
3505.97
7996.6
7978.2
8151.23
467.234
466.482
326.047
463.022
1382.58
1383.02
1193.2
8075.83
7918.86
8031.37
7434.7
7721.38
7901.83
4658.88
4838.28
4315.22
3080.75
4277.79
4354.14
4502.61
17524.2
15971.5
19145.2
3563.43
7270.2
1505.92
2395.85
5506.71
2275.94
10400.2
11126.4
9926.18
5394.77
6690.76
2744.58
4104.83
2025.01
2144.27
1836.04
1927.97
2985.35
2587.18
2466.07
6756.97
6600.42
6529.09
5237.18
6171.18
6564.96
1821.25
1768.87
1674.98
1062.99
1230.89
994.9
1606.24
1809.9
1808.47
1852.1
1833.3
1612.5
2366.85
3143.9
3299.58
3386.11
3266.31
3722.81
2520.11
1673
1411.87
2449.13
1091.51
4293.16
3762.76
4172.52
2985.43
3778.03
1518.59
2424.19
1939.02
3850.27
2642.81
2692.47
2489.89
2568.9
3760.52
465.754
2135.75
2027.57
2879.43
3021.12
3153.49
2798.84
1850.36
1888.66
1774.4
1812.55
2734.01
494.161
456.622
54.3968
1219.25
1130.85
1162.12
3216.09
211.265
961.838
403.111
1639.89
1517.58
1203.54
491.159
486.602
409.889
2591.35
3003.91
690.436
702.191
427.943
404.859
4927.71
3378.3
10031
2423.58
2666.98
862.636
4775.7
4930.09
5127.4
3109.09
2399.15
2401.41
2387.16
2394.72
3061.81
631.825
661.929
5798.24
6021.79
4305.05
3118.48
2398.67
2390.87
2403.01
2402.48
3130.69
3497.72
3344.99
3987.96
2311.12
2299.74
2215.13
2318.81
1234.28
1081.5
1087.11
1747.02
409.693
437.719
354.72
374.366
597.04
365.636
354.148
847.789
447.037
1576.28
1128.56
801.575
1498.34
201.014
543.713
458.665
167.692
404.153
300.473
909.06
657.898
759.493
1427.57
1470.1
1903.94
2002.55
1696.42
1671.08
1557.16
1731.39
1800.84
1270.98
1511.08
1396.27
2727.2
3509.25
3153.14
3493.03
3551.03
2800.82
1539.75
1551.64
1349.22
1430.14
2394.72
1799.22
1161.21
1188.08
1235.87
1117.88
1430.2
2159.8
2601.96
2444.69
1919.29
946.539
3509.28
2421.85
2239.69
2677.07
2579.53
3728.28
4338.27
4898.11
3474.71
2956.06
2602.5
3960.02
2943.39
1211.32
2094.65
2138.97
427.004
1493.87
1296.13
2504.96
1971.84
1366
2636.49
2402.63
3254.52
708.312
636.054
551.723
1342.75
2756.05
1719.97
1814.45
2040.36
1867.96
2961.93
2501.77
2224.22
1195.23
59.4484
73.4811
1958.96
2142.72
2006.84
547.548
488.266
663.302
321.983
375.691
165.832
1581.05
1637.83
759.605
1229.75
865.736
757.316
1511.22
1628.01
1461.4
2944.01
3375.64
3042.36
2525.68
2961.46
2048.39
1446.36
1480.37
1323.03
1399.65
1965.34
507.148
2482.21
337.213
428.304
750.877
757.773
571.125
701.072
372.118
693.541
937.028
101.646
505.239
879.889
921.326
1052.86
864.902
655.011
467.5
459.472
330.982
448.02
416.25
490.681
1786.26
3762.7
1130.62
9558.81
9137.81
7966.9
567.507
3026.87
2002.59
2039.77
1926.5
1965.31
2978.6
1713.69
7536.82
3109.6
2796.58
2546.43
3021.86
2864.26
1752.46
518.699
501.188
586.641
454.415
1879.93
1145.2
606.438
981.393
435.612
449.617
1162.92
4011.8
4261.41
4357.14
2526.47
2296.02
2305.64
2489.77
931.888
1161.1
1831.82
1331.81
3286.99
2801.57
3424.62
544.407
3537.58
4441.34
2505.7
2818.24
9314.3
8955.97
7424.11
10585.7
10070.5
10257.5
547.944
3067.43
3058.56
508.132
10238.3
1763.75
6230.61
1729.15
1568.07
3492.12
2762.15
2441.08
4049.33
3603.34
4089.35
3113.47
2946.15
4712.27
4369.04
4404.04
4609.39
4213.91
4157.68
4366.24
4289.01
4665.18
3062.4
3091.9
4488.06
2999.36
12240.1
4849.08
2925.88
8503.1
7376.53
6241.05
2987.56
1046.82
1057.98
1018.18
1034.18
2985.19
2951.81
1088.09
1111.14
1067.02
1076.18
2964.12
9924.74
10094.4
8265.92
7075.93
8627.21
9360.93
4221.08
2396.35
2383.24
3016.27
1851.24
1810
1768.58
1819.94
177.104
423.359
4699.6
4851.84
4262.77
6180.23
5791.64
6091.15
582.723
669.556
515.092
3606.85
3289.44
4161.32
1102.39
721.698
888.102
1027.19
2429.55
2899.28
1491.41
3460.37
832.686
924.324
578.851
552.575
3487.69
3042.24
2977.74
3160.66
3081.29
3482.07
3406.6
2824.84
2704.16
2968.01
2838.34
3396.87
531.552
525.453
1344.88
1302.84
1443.45
1553.01
1665.45
1196.34
1225.09
1313.47
1494.81
2007.72
2170.24
1816.79
1881.81
1569.85
857.775
1160.76
991.27
296.771
273.937
331.698
342.823
2282.77
2366.39
2204.51
376.98
413.816
3221.11
2726.18
2732.53
2705.3
2712.95
3238.95
3134.51
2740.15
2759.52
2736.97
2741.26
3152.14
397.84
420.668
2754.42
2390.48
3709.06
3661.59
4639.49
5104.03
5027.02
5149.97
5164.04
4707.02
4166.44
4708.58
4567.61
4926.61
4829.04
4303.1
4563.19
4528.41
2917.88
3137.17
4632.26
4591.33
4747.94
4831.29
3222.21
2841.46
4469.81
4633.2
2743.08
2868.79
3571.18
3751.31
3663.74
1508.24
2800.27
2828.23
6753.89
7186.75
7593.01
791.642
836.913
739.995
773.519
811.981
748.603
844.797
847.303
1075.01
1140.73
926.239
897.666
1160.23
1129.44
1317.56
1333.37
3004.8
1497.92
1005.16
2267.09
766.272
4058.2
4063.54
4376.52
3409.59
2358.17
2423.95
2246.41
2301.13
3321.52
5083.1
5136.93
3977.17
4605.14
4945.82
5062.58
772.961
3258.9
3138.06
3146.96
3276.78
3164.35
3029.6
2719.33
3326.85
3293.39
6694.95
6671.96
5978.53
5184.04
5953.09
6149.69
2536
1700.68
1737.36
1630.21
1665.22
2471.97
2020.34
392.77
612.749
593.56
642.515
620.378
348.245
1244.16
1344.54
1083.12
3257.46
314.437
236.299
442.109
559.844
497.388
722.504
651.82
539.311
498.329
499.3
979.48
1163.1
1136.52
1201.82
1180.76
995.186
897.823
1061.91
1033.18
1113.94
1087.24
920.28
746.868
312.085
582.402
621.122
815.558
763.666
4436.45
4894.62
4767.26
5296.13
5117.85
4613.91
4180.63
4658.76
4699.8
4685.4
4647.6
4171.82
3234.01
3025.65
2726.11
4332.25
3870.29
3720.36
1192.72
1561.28
2947.38
2409.12
2387.22
2582.2
2472.33
2971.27
4896.28
5256.91
5315.95
4873.36
5065.26
4632.36
2458
1954.41
518.75
2766.13
3782.94
3401.5
2966.15
1694.88
1693.03
2281.18
1981.54
1537.41
2125.32
2578.73
2479.46
3046.73
2371.12
2414.49
2379.15
2364.61
3063.96
3324.76
2552.88
2507.29
2616.87
2905.27
3114.54
1129.55
1216.81
857.475
2871.68
2856.61
4526.23
4072.55
4095.81
4111.9
4075.06
4524.99
4641.36
4242.1
4208.9
4141.23
4198.46
4614.98
2934.35
2904.36
933.019
928.65
2024.42
1726.16
4160.12
3097.17
3366.09
3965.05
4369.89
3829.99
3597.67
1472.68
636.98
555.909
3002.07
2931.78
3091.65
2063.32
2677.94
2786.16
3508.52
3203.67
3181.28
3180.32
3198.2
3481.02
654.003
619.88
2784.38
923.977
941.085
920.837
915.263
2726.1
2928.17
985.255
1001.62
953.42
970.56
2899.24
495.451
496.057
460.728
479.589
1648.64
1035.78
1051.2
900.032
835.766
542.059
497.576
940.424
1583.05
1525.01
1664.49
1004.54
1312.06
2490.33
1838.23
1553.96
1378.45
3770.1
3663.88
3436.56
3656.3
819.066
722.094
578.801
858.642
822.607
955.206
528.379
496.225
462.971
742.013
769.335
214.606
313.009
3972.24
2715.58
2813.67
567.794
2734.02
3682.76
3651.57
2764.52
2477.58
2768.64
2769.79
3938.69
162.657
193.308
1880.69